# vtk DataFile Version 3.0
Pressure field data
ASCII
DATASET POLYDATA
POINTS 23149 float
-1.665949970e-01 2.915470004e-01 -6.247749925e-01
-9.994050115e-02 2.915000021e-01 -6.246759892e-01
-3.330859914e-02 2.914710045e-01 -6.246089935e-01
3.330789879e-02 2.914710045e-01 -6.246079803e-01
9.994079918e-02 2.915000021e-01 -6.246759892e-01
1.665959954e-01 2.915470004e-01 -6.247749925e-01
3.664540052e-01 2.082169950e-01 -5.413950086e-01
4.332129955e-01 2.082770020e-01 -5.415400267e-01
4.999360144e-01 2.083069980e-01 -5.416079760e-01
5.666400194e-01 2.083230019e-01 -5.416439772e-01
6.333240271e-01 2.083300054e-01 -5.416589975e-01
-2.997820079e-01 2.914640009e-01 -5.413280129e-01
-2.330909967e-01 2.913739979e-01 -5.411570072e-01
-1.831579953e-01 2.705760002e-01 -5.620260239e-01
-1.165010035e-01 2.704609931e-01 -5.617750287e-01
-4.991620034e-02 2.703959942e-01 -5.616099834e-01
1.663150080e-02 2.703669965e-01 -5.615410209e-01
8.320219815e-02 2.704240084e-01 -5.616850257e-01
1.498219967e-01 2.705200016e-01 -5.619000196e-01
2.330909967e-01 2.913730145e-01 -5.411570072e-01
2.997789979e-01 2.914609909e-01 -5.413249731e-01
3.665260077e-01 2.915570140e-01 -5.414929986e-01
4.332599938e-01 2.916199863e-01 -5.415899754e-01
4.999629855e-01 2.916460037e-01 -5.416319966e-01
5.666520000e-01 2.916589975e-01 -5.416539907e-01
6.333289742e-01 2.916640043e-01 -5.416629910e-01
-1.665190011e-01 3.747000098e-01 -5.412549973e-01
-9.989459813e-02 3.746429980e-01 -5.411710143e-01
-3.330300003e-02 3.746759892e-01 -5.412150025e-01
3.330269828e-02 3.746750057e-01 -5.412139893e-01
9.989490360e-02 3.746410012e-01 -5.411689878e-01
1.665199995e-01 3.747000098e-01 -5.412549973e-01
2.331849933e-01 3.747749925e-01 -5.413749814e-01
2.998799980e-01 3.748610020e-01 -5.414869785e-01
3.665919900e-01 3.749299943e-01 -5.415760279e-01
4.332900047e-01 3.749650121e-01 -5.416210294e-01
4.999800026e-01 3.749850094e-01 -5.416479707e-01
5.666589737e-01 3.749949932e-01 -5.416600108e-01
6.333310008e-01 3.749989867e-01 -5.416650176e-01
-4.998410046e-01 2.082690001e-01 -4.581980109e-01
-4.329920113e-01 2.081730068e-01 -4.579980075e-01
3.494139910e-01 1.871860027e-01 -4.784519970e-01
4.329760075e-01 2.081629932e-01 -4.579800069e-01
4.998390079e-01 2.082670033e-01 -4.581950009e-01
5.666019917e-01 2.083089948e-01 -4.582819939e-01
6.333109736e-01 2.083259970e-01 -4.583170116e-01
6.999940276e-01 2.083310038e-01 -4.583289921e-01
7.666649818e-01 2.083330005e-01 -4.583320022e-01
-4.331179857e-01 2.915259898e-01 -4.581229985e-01
-3.662590086e-01 2.913570106e-01 -4.578630030e-01
-3.161790073e-01 2.704289854e-01 -4.785149992e-01
-2.493350059e-01 2.701469958e-01 -4.780400097e-01
-1.826629937e-01 2.698679864e-01 -4.775449932e-01
-1.160200015e-01 2.694469988e-01 -4.767630100e-01
-4.976240173e-02 2.695940137e-01 -4.770210087e-01
1.657719910e-02 2.694990039e-01 -4.768910110e-01
8.294639736e-02 2.694129944e-01 -4.767499864e-01
1.493230015e-01 2.696520090e-01 -4.771119952e-01
2.160110027e-01 2.700420022e-01 -4.778679907e-01
2.827079892e-01 2.702639997e-01 -4.782400131e-01
3.662320077e-01 2.913309932e-01 -4.578289986e-01
4.331049919e-01 2.915149927e-01 -4.581080079e-01
4.999080002e-01 2.916130126e-01 -4.582549930e-01
5.666310191e-01 2.916480005e-01 -4.583050013e-01
6.333209872e-01 2.916609943e-01 -4.583249986e-01
6.999970078e-01 2.916649878e-01 -4.583309889e-01
7.666659951e-01 2.916660011e-01 -4.583329856e-01
-4.332189858e-01 3.749060035e-01 -4.582250118e-01
-3.664489985e-01 3.747870028e-01 -4.580860138e-01
-2.996490002e-01 3.745940030e-01 -4.578529894e-01
-2.328809947e-01 3.742980063e-01 -4.574980140e-01
-1.829430014e-01 3.534489870e-01 -4.782600105e-01
-1.163410023e-01 3.532580137e-01 -4.779950082e-01
-4.987199977e-02 3.534089923e-01 -4.781500101e-01
1.662969962e-02 3.535610139e-01 -4.783149958e-01
8.309280127e-02 3.532640040e-01 -4.779950082e-01
1.496219933e-01 3.533230126e-01 -4.780920148e-01
2.328809947e-01 3.743030131e-01 -4.575040042e-01
2.996459901e-01 3.745929897e-01 -4.578520060e-01
3.664419949e-01 3.747810125e-01 -4.580779970e-01
4.332160056e-01 3.749029934e-01 -4.582209885e-01
4.999479949e-01 3.749609888e-01 -4.582880139e-01
5.666469932e-01 3.749870062e-01 -4.583179951e-01
6.333270073e-01 3.749960065e-01 -4.583289921e-01
6.999980211e-01 3.749989867e-01 -4.583320022e-01
7.666659951e-01 3.750000000e-01 -4.583329856e-01
-4.332799911e-01 4.582819939e-01 -4.582830071e-01
-3.665730059e-01 4.582279921e-01 -4.582310021e-01
-2.998439968e-01 4.581170082e-01 -4.581210017e-01
-2.331299931e-01 4.579659998e-01 -4.579730034e-01
-1.664720029e-01 4.578450024e-01 -4.578540027e-01
-9.988030046e-02 4.578010142e-01 -4.578100145e-01
-3.331910074e-02 4.580180049e-01 -4.580209851e-01
3.331710026e-02 4.580180049e-01 -4.580209851e-01
9.987650067e-02 4.578019977e-01 -4.578100145e-01
1.664689928e-01 4.578489959e-01 -4.578559995e-01
2.331299931e-01 4.579699934e-01 -4.579760134e-01
2.998439968e-01 4.581190050e-01 -4.581219852e-01
3.665730059e-01 4.582290053e-01 -4.582299888e-01
4.332799911e-01 4.582819939e-01 -4.582830071e-01
4.999760091e-01 4.583129883e-01 -4.583129883e-01
5.666580200e-01 4.583260119e-01 -4.583269954e-01
6.333310008e-01 4.583309889e-01 -4.583309889e-01
6.999989748e-01 4.583329856e-01 -4.583329856e-01
7.666659951e-01 4.583329856e-01 -4.583329856e-01
-4.994210005e-01 1.248539984e-01 -3.745799959e-01
-4.490970075e-01 1.039749980e-01 -3.951080143e-01
-3.817220032e-01 1.038350016e-01 -3.942809999e-01
-4.996260107e-01 2.081789970e-01 -3.747270107e-01
-4.494090080e-01 1.872600019e-01 -3.953540027e-01
-3.820700049e-01 1.868990064e-01 -3.945969939e-01
-3.231140077e-01 1.760720015e-01 -4.039759934e-01
2.715879977e-01 1.743700057e-01 -4.005570114e-01
3.481099904e-01 1.864749938e-01 -3.937700093e-01
4.157690108e-01 1.870979965e-01 -3.950299919e-01
4.996309876e-01 2.081779987e-01 -3.747310042e-01
5.665410161e-01 2.082850039e-01 -3.749150038e-01
6.332910061e-01 2.083179951e-01 -3.749740124e-01
6.999869943e-01 2.083290070e-01 -3.749929965e-01
7.666630149e-01 2.083320022e-01 -3.749980032e-01
-4.327679873e-01 2.912969887e-01 -3.745320141e-01
-3.825350106e-01 2.702809870e-01 -3.950720131e-01
-3.152259886e-01 2.696329951e-01 -3.941479921e-01
-2.562380135e-01 2.584120035e-01 -4.031690061e-01
-1.895689964e-01 2.577100098e-01 -4.019370079e-01
1.423989981e-01 2.608610094e-01 -4.051840007e-01
2.061910033e-01 2.577590048e-01 -4.027209878e-01
2.814860046e-01 2.691270113e-01 -3.934380114e-01
3.488110006e-01 2.699379921e-01 -3.945910037e-01
4.327580035e-01 2.912879884e-01 -3.745279908e-01
4.997810125e-01 2.915369868e-01 -3.748350143e-01
5.665959716e-01 2.916310132e-01 -3.749530017e-01
6.333090067e-01 2.916550040e-01 -3.749850094e-01
6.999930143e-01 2.916629910e-01 -3.749960065e-01
7.666649818e-01 2.916660011e-01 -3.749989867e-01
-4.330449998e-01 3.747569919e-01 -3.747600019e-01
-3.661249876e-01 3.744730055e-01 -3.744800091e-01
-3.159649968e-01 3.534170091e-01 -3.950250149e-01
-2.489929944e-01 3.527770042e-01 -3.943170011e-01
-1.822669953e-01 3.521510065e-01 -3.935909867e-01
-1.239729971e-01 3.410379887e-01 -4.031479955e-01
-5.800829828e-02 3.420880139e-01 -4.042510092e-01
8.316379972e-03 3.434630036e-01 -4.057790041e-01
7.444660366e-02 3.414309919e-01 -4.035330117e-01
1.490260065e-01 3.519169986e-01 -3.933660090e-01
2.155240029e-01 3.523949981e-01 -3.939029872e-01
2.825019956e-01 3.531810045e-01 -3.947579861e-01
3.661180139e-01 3.744660020e-01 -3.744739890e-01
4.330460131e-01 3.747580051e-01 -3.747609854e-01
4.998880029e-01 3.749170005e-01 -3.749170005e-01
5.666260123e-01 3.749729991e-01 -3.749729991e-01
6.333199739e-01 3.749920130e-01 -3.749920130e-01
6.999959946e-01 3.749980032e-01 -3.749980032e-01
7.666659951e-01 3.750000000e-01 -3.750000000e-01
-4.332169890e-01 4.582209885e-01 -3.749049902e-01
-3.664430082e-01 4.580749869e-01 -3.747839928e-01
-2.996439934e-01 4.578360021e-01 -3.745940030e-01
-2.328809947e-01 4.574759901e-01 -3.743070066e-01
-1.828760058e-01 4.364750087e-01 -3.949140012e-01
-1.162829995e-01 4.361599982e-01 -3.946360052e-01
-4.989650100e-02 4.367229939e-01 -3.951660097e-01
1.664100029e-02 4.370659888e-01 -3.954850137e-01
8.307190239e-02 4.363020062e-01 -3.947679996e-01
1.495569944e-01 4.363330007e-01 -3.947829902e-01
2.328809947e-01 4.574880004e-01 -3.743149936e-01
2.996490002e-01 4.578450024e-01 -3.745999932e-01
3.664470017e-01 4.580810070e-01 -3.747879863e-01
4.332189858e-01 4.582239985e-01 -3.749069870e-01
4.999479949e-01 4.582889974e-01 -3.749629855e-01
5.666480064e-01 4.583179951e-01 -3.749870062e-01
6.333270073e-01 4.583289921e-01 -3.749960065e-01
6.999980211e-01 4.583320022e-01 -3.749989867e-01
7.666659951e-01 4.583329856e-01 -3.750000000e-01
-1.665199995e-01 5.412409902e-01 -3.746980131e-01
-9.989999980e-02 5.411660075e-01 -3.746469915e-01
-3.330669925e-02 5.412399769e-01 -3.746959865e-01
3.330469877e-02 5.412399769e-01 -3.746959865e-01
9.989500046e-02 5.411670208e-01 -3.746460080e-01
1.665180027e-01 5.412439704e-01 -3.746989965e-01
2.331829965e-01 5.413659811e-01 -3.747760057e-01
2.998799980e-01 5.414829850e-01 -3.748619854e-01
3.665939867e-01 5.415760279e-01 -3.749319911e-01
4.332920015e-01 5.416219831e-01 -3.749659956e-01
4.999809861e-01 5.416479707e-01 -3.749859929e-01
5.666589737e-01 5.416600108e-01 -3.749949932e-01
6.333310008e-01 5.416650176e-01 -3.749989867e-01
6.999989748e-01 5.416659713e-01 -3.750000000e-01
7.666670084e-01 5.416659713e-01 -3.750000000e-01
-6.332330108e-01 -4.166090116e-02 -2.916199863e-01
-5.663099885e-01 -4.164810106e-02 -2.914899886e-01
-5.159050226e-01 -6.241580099e-02 -3.120400012e-01
-4.476599991e-01 -6.216489896e-02 -3.109860122e-01
-6.332330108e-01 4.166090116e-02 -2.916199863e-01
-5.663099885e-01 4.164820164e-02 -2.914899886e-01
-5.158669949e-01 2.079189941e-02 -3.120029867e-01
-4.472000003e-01 2.068319917e-02 -3.105799854e-01
-3.887490034e-01 1.034650020e-02 -3.212909997e-01
-6.332409978e-01 1.249819994e-01 -2.916220129e-01
-5.663229823e-01 1.249260008e-01 -2.914879918e-01
-5.159639716e-01 1.040230021e-01 -3.120859861e-01
[...]
POINT_DATA 23149
SCALARS p_true float 1
LOOKUP_TABLE default
-8.838010217e-06
-1.114649967e-05
-1.265129958e-05
-1.331099975e-05
-1.326700021e-05
-1.281620007e-05
-1.299539963e-05
-1.263230024e-05
-1.272159989e-05
-1.296339997e-05
-1.320940009e-05
-4.296539828e-06
-8.736839845e-06
-1.169749976e-05
-1.502830037e-05
-1.678300032e-05
-1.707350020e-05
-1.629379949e-05
-1.514670021e-05
-1.420009994e-05
-1.326320034e-05
-1.266449999e-05
-1.241150039e-05
-1.240740039e-05
-1.251439971e-05
-1.261109992e-05
-1.020089985e-05
-1.281309960e-05
-1.438649997e-05
-1.490110026e-05
-1.459289979e-05
-1.385260020e-05
-1.303229965e-05
-1.233399962e-05
-1.189090017e-05
-1.170149972e-05
-1.165520007e-05
-1.166889979e-05
-1.167259961e-05
9.045499610e-06
5.681709808e-06
-1.354279993e-05
-1.319500007e-05
-1.321410036e-05
-1.343090025e-05
-1.369359961e-05
-1.392460035e-05
-1.409020024e-05
4.315740171e-06
-1.475469986e-07
-4.638589871e-06
-1.094550043e-05
-1.739310028e-05
-2.243659947e-05
-2.444150050e-05
-2.303210022e-05
-2.012830009e-05
-1.722490015e-05
-1.509370031e-05
-1.407210038e-05
-1.383030030e-05
-1.302540022e-05
-1.302940018e-05
-1.322499975e-05
-1.339339997e-05
-1.351680021e-05
-1.353169955e-05
3.046779966e-06
-4.254420105e-07
-4.826370059e-06
-9.820329979e-06
-1.348570004e-05
-1.732800047e-05
-1.930500002e-05
-1.940579932e-05
-1.800529935e-05
-1.628669997e-05
-1.479369985e-05
-1.350050024e-05
-1.282369976e-05
-1.261830039e-05
-1.263939976e-05
-1.271190013e-05
-1.273270027e-05
-1.271879955e-05
-1.262719979e-05
2.016359986e-06
-6.407989872e-07
-3.811469924e-06
-7.334559996e-06
-1.071509996e-05
-1.345350029e-05
-1.505389992e-05
-1.550970046e-05
-1.509259982e-05
-1.422140031e-05
-1.326409983e-05
-1.246979991e-05
-1.200499992e-05
-1.182980031e-05
-1.176570004e-05
-1.173520013e-05
-1.168069957e-05
-1.158980012e-05
-1.142769997e-05
1.612030064e-05
1.167990013e-05
4.554859970e-06
1.343720032e-05
9.831809621e-06
3.721409939e-06
-5.943440101e-06
-1.404550039e-05
-1.368529956e-05
-1.350749972e-05
-1.329829956e-05
-1.344950033e-05
-1.365830030e-05
-1.387540033e-05
-1.403199985e-05
6.887310064e-06
2.136129979e-06
-5.964409866e-06
-1.511990013e-05
-2.414620030e-05
-1.792960029e-05
-1.565099956e-05
-1.405370040e-05
-1.397079996e-05
-1.340339986e-05
-1.327009977e-05
-1.326789970e-05
-1.336300011e-05
-1.347790021e-05
-1.354069991e-05
4.703339982e-06
-4.949179955e-10
-4.902030014e-06
-1.241910013e-05
-1.954119944e-05
-2.423620026e-05
-2.590529948e-05
-2.468029925e-05
-2.188479993e-05
-1.800259997e-05
-1.539080040e-05
-1.436830007e-05
-1.388500004e-05
-1.324159985e-05
-1.314440033e-05
-1.315870031e-05
-1.317300030e-05
-1.316319958e-05
-1.309550044e-05
3.016059964e-06
-4.533640094e-07
-4.846619959e-06
-9.832870091e-06
-1.386730037e-05
-1.786090070e-05
-1.990710007e-05
-1.986119969e-05
-1.835140029e-05
-1.652070023e-05
-1.481779964e-05
-1.351920037e-05
-1.282609992e-05
-1.258569955e-05
-1.255369989e-05
-1.255200004e-05
-1.249599973e-05
-1.239290032e-05
-1.221969978e-05
-1.019770025e-05
-1.280000015e-05
-1.436710045e-05
-1.487939971e-05
-1.457189956e-05
-1.383250037e-05
-1.300959957e-05
-1.229759982e-05
-1.182550022e-05
-1.158879968e-05
-1.147520015e-05
-1.140530003e-05
-1.131019962e-05
-1.116909971e-05
-1.095219977e-05
2.433890040e-05
2.621430031e-05
2.367269917e-05
1.994090053e-05
2.430210043e-05
2.616839993e-05
2.422420039e-05
2.030580072e-05
1.210200026e-05
2.258280074e-05
2.402259997e-05
2.253599996e-05
1.879490083e-05
1.017619979e-05
-1.378290017e-05
-1.401159989e-05
-1.421290017e-05
-1.427200004e-05
-1.418210013e-05
-1.394799983e-05
2.039689934e-05
1.912170046e-05
1.585889913e-05
7.407829798e-06
-1.371090002e-05
-1.358989994e-05
-1.349070044e-05
-1.348450041e-05
-1.363320007e-05
-1.378029992e-05
-1.384280040e-05
-1.373550003e-05
-1.346229965e-05
1.615680048e-05
1.472159965e-05
1.167549999e-05
4.277289918e-06
-5.797739959e-06
-1.387500015e-05
-1.359710041e-05
-1.327179962e-05
-1.325549965e-05
-1.332640022e-05
-1.341460029e-05
-1.342250016e-05
-1.327680002e-05
-1.297949984e-05
1.215510019e-05
1.048129980e-05
6.834849955e-06
2.438910087e-06
-6.155069968e-06
-1.612870074e-05
-2.459839925e-05
-1.538969991e-05
-1.419660020e-05
-1.405659987e-05
-1.338099992e-05
-1.318019986e-05
-1.307900038e-05
-1.305840033e-05
-1.306060039e-05
-1.300060012e-05
-1.280549986e-05
-1.246129978e-05
8.871060345e-06
7.192490102e-06
4.239309874e-06
-2.231840028e-07
-4.808840004e-06
-1.175960006e-05
-1.892279943e-05
-2.429959932e-05
-2.546190080e-05
-2.451739965e-05
-2.179709918e-05
-1.758699909e-05
-1.543039980e-05
-1.438050003e-05
-1.382299979e-05
-1.297450035e-05
-1.283389975e-05
-1.283320034e-05
-1.279640037e-05
-1.271810015e-05
-1.256470023e-05
-1.231619990e-05
-1.191360025e-05
6.358920018e-06
4.853839982e-06
2.585489938e-06
-4.735250059e-07
-4.356889804e-06
-8.776270079e-06
-1.262729984e-05
-1.621149931e-05
-1.806209912e-05
-1.824279934e-05
-1.724849972e-05
-1.586869985e-05
-1.422760033e-05
-1.327669997e-05
-1.264759976e-05
-1.232009981e-05
-1.218249963e-05
-1.210380015e-05
-1.199300004e-05
-1.183069980e-05
-1.160139982e-05
-1.129209977e-05
-1.087360033e-05
4.550739959e-06
3.287409982e-06
1.565889988e-06
-6.186709811e-07
-3.222379974e-06
-6.082750133e-06
-8.825129953e-06
-1.111179972e-05
-1.260019963e-05
-1.324900040e-05
-1.320180036e-05
-1.274159968e-05
-1.217039971e-05
-1.161880027e-05
-1.120500019e-05
-1.094389972e-05
-1.078300011e-05
-1.067520043e-05
-1.056190013e-05
-1.040820007e-05
-1.018829971e-05
-9.894420145e-06
-9.509610209e-06
-6.546889836e-06
-8.265229553e-06
-9.558710190e-06
-1.034169964e-05
-1.063840045e-05
-1.057329973e-05
-1.032789987e-05
-1.004279966e-05
-9.794280231e-06
-9.607540051e-06
-9.469919860e-06
-9.358130228e-06
-9.238629900e-06
-9.091570064e-06
-8.887600416e-06
-8.619899745e-06
-8.281410373e-06
-7.538490081e-06
-7.248119800e-06
2.445310020e-05
2.648279951e-05
2.822739953e-05
2.798629976e-05
3.033760004e-05
3.096229921e-05
3.286049832e-05
2.828760080e-05
-1.484340009e-05
-1.507569959e-05
-1.525900007e-05
-1.545610030e-05
3.030110020e-05
3.161709901e-05
3.353970169e-05
2.965120075e-05
-1.449289994e-05
-1.460949989e-05
-1.460729982e-05
-1.452020024e-05
2.811930062e-05
2.973849951e-05
3.126680167e-05
2.698329990e-05
-1.369910024e-05
-1.376339969e-05
-1.394860010e-05
-1.412710026e-05
-1.418420015e-05
-1.408319986e-05
-1.382030041e-05
1.682649963e-05
1.919379974e-05
2.173350003e-05
2.427629988e-05
2.626639980e-05
2.631859934e-05
2.251350088e-05
-1.356830035e-05
-1.354009964e-05
-1.349270042e-05
-1.357749989e-05
-1.368959965e-05
-1.372580027e-05
-1.360330043e-05
-1.330150008e-05
1.475140016e-05
1.645960037e-05
1.818669989e-05
1.959230030e-05
2.034809950e-05
2.017119914e-05
1.660609996e-05
7.887550055e-06
-1.351520041e-05
-1.338390030e-05
-1.327389964e-05
-1.330739997e-05
-1.335659999e-05
-1.333169985e-05
-1.316620001e-05
-1.284340033e-05
1.497819994e-05
1.333109958e-05
1.107529988e-05
3.964400094e-06
-6.227940048e-06
-1.422900004e-05
-1.383200015e-05
-1.355380027e-05
-1.311679989e-05
-1.305440037e-05
-1.302910005e-05
-1.302409964e-05
-1.295019956e-05
-1.274530041e-05
-1.238999994e-05
1.071069983e-05
8.929159776e-06
5.558249995e-06
1.831589998e-06
-5.630260148e-06
-1.556780080e-05
-2.421940007e-05
-2.767489968e-05
-1.801960025e-05
-1.571900066e-05
-1.409820015e-05
-1.383299968e-05
-1.322679964e-05
-1.299870019e-05
-1.290199998e-05
-1.283740039e-05
-1.276380044e-05
-1.261699981e-05
-1.236020034e-05
-1.194919969e-05
7.515409834e-06
5.913069799e-06
3.343400067e-06
-3.307999918e-07
-5.131929811e-06
-9.994720131e-06
-1.569539927e-05
-1.982719914e-05
-2.203539952e-05
-2.156769915e-05
-1.940609945e-05
-1.687690019e-05
-1.513579991e-05
-1.407089985e-05
-1.305840033e-05
-1.259360033e-05
-1.246680040e-05
-1.241429982e-05
-1.230819998e-05
-1.215169959e-05
-1.192990021e-05
-1.162189983e-05
-1.120080015e-05
5.281729955e-06
3.939750059e-06
2.029240022e-06
-4.730590035e-07
-3.567110070e-06
-6.996289812e-06
-1.029849955e-05
-1.283629990e-05
-1.432299996e-05
-1.477010028e-05
-1.442879966e-05
-1.370229984e-05
-1.290599994e-05
-1.227499979e-05
-1.180490017e-05
-1.151359993e-05
-1.135230013e-05
-1.124869959e-05
-1.112659993e-05
-1.095229982e-05
-1.070580038e-05
-1.037929997e-05
-9.959019735e-06
-7.243039818e-06
-9.139230315e-06
-1.049900038e-05
-1.125780000e-05
-1.146550039e-05
-1.127710038e-05
-1.091460035e-05
-1.054879976e-05
-1.024910034e-05
-1.002550016e-05
-9.856599718e-06
-9.718440197e-06
-9.581820450e-06
-9.431119906e-06
-9.226760085e-06
-8.954229997e-06
-8.602330126e-06
-7.820410246e-06
-7.514200206e-06
-6.828469850e-06
-6.571040103e-06
2.421009958e-05
2.825679985e-05
2.801129995e-05
3.278969962e-05
3.374379958e-05
3.545350046e-05
3.765509973e-05
3.932059917e-05
-1.468970004e-05
-1.492520005e-05
-1.506569970e-05
-1.516920020e-05
3.541720071e-05
3.847730113e-05
4.072990123e-05
-1.407840045e-05
-1.430009979e-05
-1.443840029e-05
-1.445020007e-05
-1.435709964e-05
3.268309956e-05
3.601859862e-05
3.885940168e-05
-1.379629975e-05
-1.370940026e-05
-1.381689981e-05
-1.396530024e-05
-1.402010002e-05
-1.391630030e-05
-1.365469961e-05
1.845320003e-05
2.136459989e-05
2.460620090e-05
2.808250065e-05
3.106470103e-05
3.270829984e-05
2.914949982e-05
-1.359149974e-05
-1.353379957e-05
-1.350470029e-05
-1.357289966e-05
-1.358329973e-05
-1.344019984e-05
-1.312259974e-05
1.608869934e-05
1.821139995e-05
2.043570021e-05
2.250679972e-05
2.392279930e-05
2.493539978e-05
2.072079951e-05
-1.348980004e-05
-1.339830033e-05
-1.330830037e-05
-1.328209964e-05
-1.328829967e-05
-1.322810022e-05
-1.303380031e-05
-1.268170035e-05
1.738130049e-05
1.596460061e-05
1.401860027e-05
5.304999831e-06
-1.373679970e-05
-1.346429963e-05
-1.310910011e-05
-1.304459965e-05
-1.299860014e-05
-1.297380004e-05
-1.287679970e-05
-1.265090032e-05
-1.227669964e-05
1.223290019e-05
1.046729994e-05
6.790569842e-06
2.629380106e-06
-6.633229987e-06
-1.674779924e-05
-1.521539980e-05
-1.417709973e-05
-1.382139999e-05
-1.326080019e-05
-1.307549974e-05
-1.286689985e-05
-1.277409956e-05
-1.269679979e-05
-1.254969993e-05
-1.228769997e-05
-1.187579983e-05
8.477370102e-06
6.789390227e-06
4.055039881e-06
-2.440989988e-07
-4.697240001e-06
-1.146960039e-05
-1.833910028e-05
-2.368899914e-05
-2.572159974e-05
-2.412899994e-05
-2.110350033e-05
-1.703439921e-05
-1.521909962e-05
-1.408020034e-05
-1.390659963e-05
-1.271400015e-05
-1.246129978e-05
-1.243499992e-05
-1.237499964e-05
-1.226069980e-05
-1.205870012e-05
-1.176190017e-05
-1.133360001e-05
5.876130217e-06
4.472120054e-06
2.417290034e-06
-3.591239874e-07
-3.875300081e-06
-7.856549928e-06
-1.175119996e-05
-1.491199964e-05
-1.669119956e-05
-1.702689951e-05
-1.621780029e-05
-1.502129999e-05
-1.336130026e-05
-1.268429969e-05
-1.221240018e-05
-1.189439990e-05
-1.172189968e-05
-1.161559976e-05
-1.147599960e-05
-1.128700023e-05
-1.102330043e-05
-1.068340043e-05
-1.024480025e-05
-7.810649549e-06
-9.853210031e-06
-1.121179957e-05
-1.187999987e-05
-1.198199971e-05
-1.172999964e-05
-1.134270042e-05
-1.092329967e-05
-1.057800000e-05
-1.032630007e-05
-1.013109977e-05
-9.968640370e-06
-9.812740245e-06
-9.652800145e-06
-9.457159649e-06
-9.187740034e-06
-8.828180398e-06
-8.015539606e-06
-7.698759873e-06
-6.973610198e-06
-6.709989975e-06
1.793000047e-05
1.253069968e-05
2.631650023e-05
2.377259989e-05
2.007809962e-05
3.040770025e-05
3.103110066e-05
3.293480040e-05
2.836269960e-05
3.549459871e-05
3.769660179e-05
3.936409848e-05
3.842630031e-05
4.218480171e-05
4.504670142e-05
-1.410549976e-05
-1.456049995e-05
-1.483289998e-05
-1.496579989e-05
-1.499930022e-05
3.839089914e-05
4.314690159e-05
4.670719863e-05
-1.363419960e-05
-1.386660006e-05
-1.409279957e-05
-1.431980036e-05
-1.437050014e-05
-1.426349991e-05
3.538990131e-05
4.033599907e-05
4.378330050e-05
-1.361940031e-05
-1.366230026e-05
-1.378310026e-05
-1.386619988e-05
-1.379639980e-05
-1.355049972e-05
1.936800072e-05
2.258620043e-05
2.625160050e-05
3.023670070e-05
3.459220170e-05
3.677999848e-05
-1.356689972e-05
-1.348919977e-05
-1.342100040e-05
-1.345330020e-05
-1.345180044e-05
-1.331549993e-05
-1.299930045e-05
1.683939990e-05
1.919540045e-05
2.172940003e-05
2.419819975e-05
2.603629946e-05
2.818090070e-05
2.559779932e-05
-1.338269976e-05
-1.329380029e-05
-1.323640026e-05
-1.321249965e-05
-1.313430039e-05
-1.292829984e-05
-1.255959978e-05
1.876019996e-05
1.751310083e-05
1.590399916e-05
8.573660125e-06
-1.340329982e-05
-1.308999981e-05
-1.302530018e-05
-1.297050039e-05
-1.292609977e-05
-1.280939978e-05
-1.256749965e-05
-1.217459976e-05
1.308440005e-05
1.135210005e-05
7.447700227e-06
3.286680112e-06
-5.632809916e-06
-1.588349915e-05
-1.397150027e-05
-1.381410038e-05
-1.322040043e-05
-1.300159965e-05
-1.279669959e-05
-1.270610028e-05
-1.262410024e-05
-1.246949978e-05
-1.219909973e-05
-1.178440016e-05
9.017760021e-06
7.273220035e-06
4.460110176e-06
-1.673709988e-07
-5.218989827e-06
-1.256989981e-05
-2.039560059e-05
-2.585020047e-05
-2.510460035e-05
-2.453749948e-05
-2.105040039e-05
-1.800969949e-05
-1.501629959e-05
-1.397560027e-05
-1.386579970e-05
-1.261669968e-05
-1.241059999e-05
-1.243229963e-05
-1.241360042e-05
-1.232120030e-05
-1.212339976e-05
-1.181310017e-05
-1.136539959e-05
6.216810107e-06
4.777809863e-06
2.648610007e-06
-2.689610028e-07
-4.012839781e-06
-8.280109796e-06
-1.282359972e-05
-1.616779991e-05
-1.797080040e-05
-1.795999924e-05
-1.674170016e-05
-1.532230090e-05
-1.355200038e-05
-1.284910013e-05
-1.235939999e-05
-1.203329975e-05
-1.186060035e-05
-1.175089983e-05
-1.160620013e-05
-1.141649955e-05
-1.113819962e-05
-1.078530022e-05
-1.033100034e-05
-8.104349945e-06
-1.022040033e-05
-1.158230043e-05
-1.221129969e-05
-1.226309996e-05
-1.196860012e-05
-1.155120026e-05
-1.109270033e-05
-1.071560018e-05
-1.044150031e-05
-1.023400000e-05
-1.006480034e-05
-9.903979844e-06
-9.743280316e-06
-9.562189916e-06
-9.297589713e-06
-8.935870028e-06
1.795000026e-05
1.288129988e-05
2.633710028e-05
2.439720083e-05
2.055190089e-05
3.042649951e-05
3.174530138e-05
3.368849866e-05
2.983430022e-05
-1.065929973e-05
-1.176210026e-05
-1.265769970e-05
-1.356659959e-05
3.551560076e-05
3.857869888e-05
4.084140164e-05
-1.102969964e-05
-1.201319992e-05
-1.311879987e-05
-1.372810038e-05
-1.436929961e-05
-1.490120030e-05
3.844880121e-05
4.320820153e-05
4.678259938e-05
-1.300799977e-05
-1.375800002e-05
-1.426949984e-05
-1.459059968e-05
-1.478220020e-05
-1.484540007e-05
3.841440048e-05
4.417980017e-05
4.852240090e-05
-1.341430016e-05
-1.359480029e-05
-1.382040045e-05
-1.406909996e-05
-1.420139961e-05
-1.412559959e-05
3.541399929e-05
4.132679896e-05
4.570309829e-05
-1.347190027e-05
-1.347279976e-05
-1.357580004e-05
-1.367589994e-05
-1.366289962e-05
-1.346330009e-05
1.938129935e-05
2.260220026e-05
2.627100002e-05
3.026060040e-05
3.540479884e-05
3.766909867e-05
-1.346299996e-05
-1.339440041e-05
-1.330810028e-05
-1.333080036e-05
-1.333240016e-05
-1.322860044e-05
-1.294689991e-05
1.685250027e-05
1.921110015e-05
2.174869951e-05
2.422179932e-05
2.606660019e-05
2.895979924e-05
2.640919956e-05
-1.330370014e-05
-1.320310002e-05
-1.315179998e-05
-1.313230041e-05
-1.306830018e-05
-1.288610019e-05
-1.254309973e-05
1.878859985e-05
1.754890036e-05
1.634570071e-05
9.575839613e-06
-1.332840020e-05
-1.300720032e-05
-1.295200036e-05
-1.290519958e-05
-1.287519990e-05
-1.276970033e-05
-1.254020026e-05
-1.215409975e-05
1.311019969e-05
1.138419975e-05
7.488460142e-06
3.482309921e-06
-5.309349945e-06
-1.693679951e-05
-1.387540033e-05
-1.372610041e-05
-1.313170014e-05
-1.289959982e-05
-1.270600023e-05
-1.261899979e-05
-1.254079962e-05
-1.238759978e-05
-1.212919960e-05
-1.173239980e-05
9.040350051e-06
7.301090136e-06
4.493930192e-06
-1.238479967e-07
-5.247579793e-06
-1.278119998e-05
-2.064219916e-05
-2.664500062e-05
-2.559260065e-05
-2.462180055e-05
-2.092199975e-05
-1.795159915e-05
-1.498009988e-05
-1.391780006e-05
-1.363829961e-05
-1.245650037e-05
-1.230440012e-05
-1.238690038e-05
-1.240870006e-05
-1.232760042e-05
-1.213110045e-05
-1.181100015e-05
-1.136159972e-05
6.236739864e-06
4.801479918e-06
2.677079920e-06
-2.352049933e-07
-3.972780178e-06
-8.231670108e-06
-1.306349986e-05
-1.642399911e-05
-1.817679913e-05
-1.809579953e-05
-1.677739965e-05
-1.532090027e-05
-1.347659963e-05
-1.276520015e-05
-1.226540007e-05
-1.193210028e-05
-1.175459965e-05
-1.164770038e-05
-1.152060031e-05
-1.134159993e-05
-1.107289972e-05
-1.072679970e-05
-1.028049974e-05
-8.063209862e-06
-1.017480008e-05
-1.153270023e-05
-1.215849989e-05
-1.220749982e-05
-1.191170031e-05
-1.149370019e-05
-1.103490013e-05
-1.065479955e-05
-1.037630045e-05
-1.017100021e-05
-1.000839984e-05
-9.857500118e-06
-9.706110177e-06
-9.527269867e-06
-9.272520401e-06
-8.922420420e-06
1.645080010e-05
1.207059995e-05
2.427010077e-05
2.280680019e-05
1.913999949e-05
1.053619962e-05
-1.046580019e-05
-1.073959993e-05
-1.129849989e-05
-1.220969989e-05
2.831259917e-05
2.994570059e-05
3.151920100e-05
2.730840060e-05
-1.045970021e-05
-1.075300042e-05
-1.178129969e-05
-1.255979987e-05
-1.331240037e-05
3.285110142e-05
3.620409916e-05
3.911719978e-05
-1.104599960e-05
-1.195440018e-05
-1.316050020e-05
-1.372459974e-05
-1.425449955e-05
-1.470210009e-05
3.551990085e-05
4.048179835e-05
4.397950033e-05
-1.274559963e-05
-1.337649974e-05
-1.379439982e-05
-1.420409990e-05
-1.446019996e-05
-1.457859980e-05
-1.453850018e-05
3.548670065e-05
4.141140016e-05
4.581699977e-05
-1.315040026e-05
-1.334209992e-05
-1.353619973e-05
-1.375379998e-05
-1.391079968e-05
-1.390329999e-05
-1.374580006e-05
-1.342779979e-05
3.275370182e-05
3.875590119e-05
4.283310045e-05
-1.327080008e-05
-1.328039980e-05
-1.336609967e-05
-1.347540001e-05
-1.349979993e-05
-1.337479989e-05
-1.310100015e-05
-1.260340014e-05
2.815329935e-05
3.329179890e-05
3.513519914e-05
3.509080125e-05
-1.329330007e-05
-1.323830020e-05
-1.318750037e-05
-1.323440029e-05
-1.326209986e-05
-1.319320018e-05
-1.296850041e-05
-1.257730037e-05
-1.192020045e-05
2.257649976e-05
2.401110032e-05
2.709319961e-05
2.506229976e-05
-1.316189991e-05
-1.303469980e-05
-1.303489989e-05
-1.306590002e-05
-1.306309969e-05
-1.292930028e-05
-1.264060029e-05
-1.218970010e-05
-1.144179987e-05
1.729870019e-05
1.746449925e-05
1.607000013e-05
1.532510032e-05
8.541490388e-06
-1.323109973e-05
-1.284259997e-05
-1.280580000e-05
-1.279370008e-05
-1.280699962e-05
-1.274009992e-05
-1.255769985e-05
-1.221490038e-05
-1.172579960e-05
-1.094730032e-05
1.283419988e-05
1.230850012e-05
1.056099973e-05
6.910070169e-06
3.200680112e-06
-6.731010217e-06
-1.482070002e-05
-1.382350001e-05
-1.364229956e-05
-1.303219960e-05
-1.277069987e-05
-1.259310011e-05
-1.251780031e-05
-1.245479962e-05
-1.230989983e-05
-1.208760023e-05
-1.172920020e-05
-1.121570040e-05
-1.043940028e-05
8.543959666e-06
6.871110145e-06
4.154499948e-06
-1.187200027e-07
-5.011930170e-06
-1.204139971e-05
-1.924880053e-05
-2.492719977e-05
-2.533920087e-05
-2.406120075e-05
-2.083529944e-05
-1.781180072e-05
-1.482829975e-05
-1.380889989e-05
-1.334850003e-05
-1.224510015e-05
-1.207039986e-05
-1.214959957e-05
-1.219210026e-05
-1.215690008e-05
-1.202349995e-05
-1.172819975e-05
-1.130980036e-05
-1.076199987e-05
-9.957590009e-06
5.934649835e-06
4.541920134e-06
2.500800065e-06
-2.595839987e-07
-3.758130106e-06
-7.716270375e-06
-1.237319975e-05
-1.551840069e-05
-1.725390030e-05
-1.733819954e-05
-1.625400000e-05
-1.493770014e-05
-1.312420045e-05
-1.243600036e-05
-1.195599998e-05
-1.163140041e-05
-1.145959959e-05
-1.136030005e-05
-1.125040035e-05
-1.108939978e-05
-1.084720043e-05
-1.052970038e-05
-1.011420045e-05
-9.611930182e-06
-8.899700333e-06
-7.689020094e-06
-9.717089597e-06
-1.106249965e-05
-1.171880012e-05
-1.181049993e-05
-1.155310019e-05
-1.116469957e-05
-1.074709962e-05
-1.040099960e-05
-1.014680038e-05
-9.959830095e-06
-9.807549759e-06
-9.664930076e-06
-9.516349564e-06
-9.342150406e-06
-9.106260222e-06
-8.780009921e-06
3.993950031e-06
4.582769861e-07
6.228409802e-06
1.902010013e-06
1.385809992e-05
1.032830005e-05
4.349450137e-06
2.073510041e-05
1.950610022e-05
1.634289947e-05
8.001040442e-06
-1.074159991e-05
-1.053110009e-05
-1.037580023e-05
-1.025589972e-05
-1.049670027e-05
-1.118999990e-05
2.454440073e-05
2.659500024e-05