# vtk DataFile Version 3.0
v_vmean_p.vtk
ASCII
DATASET STRUCTURED_GRID
DIMENSIONS         8       10        4
POINTS                  320 float
  0.500000000000000       0.100000000000000       0.500000000000000     
   1.50000000000000       0.100000000000000       0.500000000000000     
   2.50000000000000       0.100000000000000       0.500000000000000     
   3.50000000000000       0.100000000000000       0.500000000000000     
   4.50000000000000       0.100000000000000       0.500000000000000     
   5.50000000000000       0.100000000000000       0.500000000000000     
   6.50000000000000       0.100000000000000       0.500000000000000     
   7.50000000000000       0.100000000000000       0.500000000000000     
  0.500000000000000       0.300000000000000       0.500000000000000     
   1.50000000000000       0.300000000000000       0.500000000000000     
   2.50000000000000       0.300000000000000       0.500000000000000     
   3.50000000000000       0.300000000000000       0.500000000000000     
   4.50000000000000       0.300000000000000       0.500000000000000     
   5.50000000000000       0.300000000000000       0.500000000000000     
   6.50000000000000       0.300000000000000       0.500000000000000     
   7.50000000000000       0.300000000000000       0.500000000000000     
  0.500000000000000       0.500000000000000       0.500000000000000     
   1.50000000000000       0.500000000000000       0.500000000000000     
   2.50000000000000       0.500000000000000       0.500000000000000     
   3.50000000000000       0.500000000000000       0.500000000000000     
   4.50000000000000       0.500000000000000       0.500000000000000     
   5.50000000000000       0.500000000000000       0.500000000000000     
   6.50000000000000       0.500000000000000       0.500000000000000     
   7.50000000000000       0.500000000000000       0.500000000000000     
  0.500000000000000       0.700000000000000       0.500000000000000     
   1.50000000000000       0.700000000000000       0.500000000000000     
   2.50000000000000       0.700000000000000       0.500000000000000     
   3.50000000000000       0.700000000000000       0.500000000000000     
   4.50000000000000       0.700000000000000       0.500000000000000     
   5.50000000000000       0.700000000000000       0.500000000000000     
   6.50000000000000       0.700000000000000       0.500000000000000     
   7.50000000000000       0.700000000000000       0.500000000000000     
  0.500000000000000       0.900000000000000       0.500000000000000     
   1.50000000000000       0.900000000000000       0.500000000000000     
   2.50000000000000       0.900000000000000       0.500000000000000     
   3.50000000000000       0.900000000000000       0.500000000000000     
   4.50000000000000       0.900000000000000       0.500000000000000     
   5.50000000000000       0.900000000000000       0.500000000000000     
   6.50000000000000       0.900000000000000       0.500000000000000     
   7.50000000000000       0.900000000000000       0.500000000000000     
  0.500000000000000        1.10000000000000       0.500000000000000     
   1.50000000000000        1.10000000000000       0.500000000000000     
   2.50000000000000        1.10000000000000       0.500000000000000     
   3.50000000000000        1.10000000000000       0.500000000000000     
   4.50000000000000        1.10000000000000       0.500000000000000     
   5.50000000000000        1.10000000000000       0.500000000000000     
   6.50000000000000        1.10000000000000       0.500000000000000     
   7.50000000000000        1.10000000000000       0.500000000000000     
  0.500000000000000        1.30000000000000       0.500000000000000     
   1.50000000000000        1.30000000000000       0.500000000000000     
   2.50000000000000        1.30000000000000       0.500000000000000     
   3.50000000000000        1.30000000000000       0.500000000000000     
   4.50000000000000        1.30000000000000       0.500000000000000     
   5.50000000000000        1.30000000000000       0.500000000000000     
   6.50000000000000        1.30000000000000       0.500000000000000     
   7.50000000000000        1.30000000000000       0.500000000000000     
  0.500000000000000        1.50000000000000       0.500000000000000     
   1.50000000000000        1.50000000000000       0.500000000000000     
   2.50000000000000        1.50000000000000       0.500000000000000     
   3.50000000000000        1.50000000000000       0.500000000000000     
   4.50000000000000        1.50000000000000       0.500000000000000     
   5.50000000000000        1.50000000000000       0.500000000000000     
   6.50000000000000        1.50000000000000       0.500000000000000     
   7.50000000000000        1.50000000000000       0.500000000000000     
  0.500000000000000        1.70000000000000       0.500000000000000     
   1.50000000000000        1.70000000000000       0.500000000000000     
   2.50000000000000        1.70000000000000       0.500000000000000     
   3.50000000000000        1.70000000000000       0.500000000000000     
   4.50000000000000        1.70000000000000       0.500000000000000     
   5.50000000000000        1.70000000000000       0.500000000000000     
   6.50000000000000        1.70000000000000       0.500000000000000     
   7.50000000000000        1.70000000000000       0.500000000000000     
  0.500000000000000        1.90000000000000       0.500000000000000     
   1.50000000000000        1.90000000000000       0.500000000000000     
   2.50000000000000        1.90000000000000       0.500000000000000     
   3.50000000000000        1.90000000000000       0.500000000000000     
   4.50000000000000        1.90000000000000       0.500000000000000     
   5.50000000000000        1.90000000000000       0.500000000000000     
   6.50000000000000        1.90000000000000       0.500000000000000     
   7.50000000000000        1.90000000000000       0.500000000000000     
  0.500000000000000       0.100000000000000        1.50000000000000     
   1.50000000000000       0.100000000000000        1.50000000000000     
   2.50000000000000       0.100000000000000        1.50000000000000     
   3.50000000000000       0.100000000000000        1.50000000000000     
   4.50000000000000       0.100000000000000        1.50000000000000     
   5.50000000000000       0.100000000000000        1.50000000000000     
   6.50000000000000       0.100000000000000        1.50000000000000     
   7.50000000000000       0.100000000000000        1.50000000000000     
  0.500000000000000       0.300000000000000        1.50000000000000     
   1.50000000000000       0.300000000000000        1.50000000000000     
   2.50000000000000       0.300000000000000        1.50000000000000     
   3.50000000000000       0.300000000000000        1.50000000000000     
   4.50000000000000       0.300000000000000        1.50000000000000     
   5.50000000000000       0.300000000000000        1.50000000000000     
   6.50000000000000       0.300000000000000        1.50000000000000     
   7.50000000000000       0.300000000000000        1.50000000000000     
  0.500000000000000       0.500000000000000        1.50000000000000     
   1.50000000000000       0.500000000000000        1.50000000000000     
   2.50000000000000       0.500000000000000        1.50000000000000     
   3.50000000000000       0.500000000000000        1.50000000000000     
   4.50000000000000       0.500000000000000        1.50000000000000     
   5.50000000000000       0.500000000000000        1.50000000000000     
   6.50000000000000       0.500000000000000        1.50000000000000     
   7.50000000000000       0.500000000000000        1.50000000000000     
  0.500000000000000       0.700000000000000        1.50000000000000     
   1.50000000000000       0.700000000000000        1.50000000000000     
   2.50000000000000       0.700000000000000        1.50000000000000     
   3.50000000000000       0.700000000000000        1.50000000000000     
   4.50000000000000       0.700000000000000        1.50000000000000     
   5.50000000000000       0.700000000000000        1.50000000000000     
   6.50000000000000       0.700000000000000        1.50000000000000     
   7.50000000000000       0.700000000000000        1.50000000000000     
  0.500000000000000       0.900000000000000        1.50000000000000     
   1.50000000000000       0.900000000000000        1.50000000000000     
   2.50000000000000       0.900000000000000        1.50000000000000     
   3.50000000000000       0.900000000000000        1.50000000000000     
   4.50000000000000       0.900000000000000        1.50000000000000     
   5.50000000000000       0.900000000000000        1.50000000000000     
   6.50000000000000       0.900000000000000        1.50000000000000     
   7.50000000000000       0.900000000000000        1.50000000000000     
  0.500000000000000        1.10000000000000        1.50000000000000     
   1.50000000000000        1.10000000000000        1.50000000000000     
   2.50000000000000        1.10000000000000        1.50000000000000     
   3.50000000000000        1.10000000000000        1.50000000000000     
   4.50000000000000        1.10000000000000        1.50000000000000     
   5.50000000000000        1.10000000000000        1.50000000000000     
   6.50000000000000        1.10000000000000        1.50000000000000     
   7.50000000000000        1.10000000000000        1.50000000000000     
  0.500000000000000        1.30000000000000        1.50000000000000     
   1.50000000000000        1.30000000000000        1.50000000000000     
   2.50000000000000        1.30000000000000        1.50000000000000     
   3.50000000000000        1.30000000000000        1.50000000000000     
   4.50000000000000        1.30000000000000        1.50000000000000     
   5.50000000000000        1.30000000000000        1.50000000000000     
   6.50000000000000        1.30000000000000        1.50000000000000     
[...]
POINT_DATA       320
VECTORS velocity float
  6.153288005347185E-004  2.681500826051534E-002  0.000000000000000E+000
  1.646393266558028E-003  2.578659562264890E-002  0.000000000000000E+000
  2.481363128780343E-003  2.377365248052927E-002  0.000000000000000E+000
  3.264085238059967E-003  2.084009361663955E-002  0.000000000000000E+000
  3.927871957090567E-003  1.710192816450867E-002  0.000000000000000E+000
  4.451867753110131E-003  1.269509612615342E-002  0.000000000000000E+000
  4.804271409172036E-003  7.793612649751540E-003  0.000000000000000E+000
  4.988120663649032E-003  2.586606508377790E-003  0.000000000000000E+000
  4.096498954404565E-004  6.494147465303515E-002  0.000000000000000E+000
  1.038126758535844E-003  6.245211295393804E-002  0.000000000000000E+000
  1.492063428021317E-003  5.756937261879329E-002  0.000000000000000E+000
  1.929738823699593E-003  5.046330693914825E-002  0.000000000000000E+000
  2.298869243924451E-003  4.140629066767158E-002  0.000000000000000E+000
  2.590200432734747E-003  3.073640219962273E-002  0.000000000000000E+000
  2.782568953120039E-003  1.886863561328182E-002  0.000000000000000E+000
  2.912073509288183E-003  6.264610959729064E-003  0.000000000000000E+000
  1.174615579306996E-004  7.010853553583050E-002  0.000000000000000E+000
  1.719802607091215E-004  6.741902402633002E-002  0.000000000000000E+000
  8.360568776273526E-005  6.213461998282642E-002  0.000000000000000E+000
  3.147121007732961E-005  5.445880043697211E-002  0.000000000000000E+000
 -1.750779363084222E-005  4.467520118934883E-002  0.000000000000000E+000
 -5.566290314581467E-005  3.316122761147609E-002  0.000000000000000E+000
 -9.008697535272655E-005  2.035611409798931E-002  0.000000000000000E+000
 -3.852810398122967E-005  6.762856363361285E-003  0.000000000000000E+000
 -1.282509791639243E-004  4.885425104304428E-002  0.000000000000000E+000
 -5.566549195393746E-004  4.697436997430130E-002  0.000000000000000E+000
 -1.099981247733823E-003  4.328450885091487E-002  0.000000000000000E+000
 -1.562144885347509E-003  3.792893780973083E-002  0.000000000000000E+000
 -1.960645273177046E-003  3.110917172227861E-002  0.000000000000000E+000
 -2.273616939547887E-003  2.308798497574561E-002  0.000000000000000E+000
 -2.497105233003327E-003  1.417256552692866E-002  0.000000000000000E+000
 -2.511720647327238E-003  4.711423002681557E-003  0.000000000000000E+000
 -2.585136506739514E-004  1.687163789941396E-002  0.000000000000000E+000
 -9.419671529357196E-004  1.622034889821931E-002  0.000000000000000E+000
 -1.725480580301776E-003  1.494525281368193E-002  0.000000000000000E+000
 -2.403596031235035E-003  1.309344254424900E-002  0.000000000000000E+000
 -2.985698172784847E-003  1.073814911053267E-002  0.000000000000000E+000
 -3.442983980550319E-003  7.968132636553040E-003  0.000000000000000E+000
 -3.765399244738613E-003  4.891348957278273E-003  0.000000000000000E+000
 -3.815325692914933E-003  1.626659023971762E-003  0.000000000000000E+000
 -2.585084706227476E-004 -1.687226921692679E-002  0.000000000000000E+000
 -9.419316594603939E-004 -1.622177109660525E-002  0.000000000000000E+000
 -1.725362566063838E-003 -1.494493326494294E-002  0.000000000000000E+000
 -2.403565683351365E-003 -1.309393203793075E-002  0.000000000000000E+000
 -2.985707312910685E-003 -1.073778431348003E-002  0.000000000000000E+000
 -3.442977017853756E-003 -7.968423173077478E-003  0.000000000000000E+000
 -3.765399983583240E-003 -4.891225351358931E-003  0.000000000000000E+000
 -3.815322214477566E-003 -1.626695832786902E-003  0.000000000000000E+000
 -1.284143362242720E-004 -4.885418178876518E-002  0.000000000000000E+000
 -5.565002436329422E-004 -4.697273099210496E-002  0.000000000000000E+000
 -1.099912722919999E-003 -4.328488640796980E-002  0.000000000000000E+000
 -1.562166183177131E-003 -3.792831198176633E-002  0.000000000000000E+000
 -1.960596342245805E-003 -3.110962729050913E-002  0.000000000000000E+000
 -2.273672139917736E-003 -2.308761843851038E-002  0.000000000000000E+000
 -2.497053749030236E-003 -1.417273712528782E-002  0.000000000000000E+000
 -2.511741485167838E-003 -4.711411520143529E-003  0.000000000000000E+000
  1.177806942350270E-004 -7.010948076661871E-002  0.000000000000000E+000
  1.719263955913188E-004 -6.741676674650078E-002  0.000000000000000E+000
  8.352107444356340E-005 -6.213590631012494E-002  0.000000000000000E+000
  3.148595412039073E-005 -5.445743323054825E-002  0.000000000000000E+000
 -1.756878997045575E-005 -4.467628696986822E-002  0.000000000000000E+000
 -5.559914816491868E-005 -3.316039825009964E-002  0.000000000000000E+000
 -9.015872395559304E-005 -2.035659646404852E-002  0.000000000000000E+000
 -3.849260273100996E-005 -6.762706584687479E-003  0.000000000000000E+000
  4.101270484476514E-004 -6.493938200014029E-002  0.000000000000000E+000
  1.038213218183907E-003 -6.245490788149591E-002  0.000000000000000E+000
  1.491953935358778E-003 -5.756780588930293E-002  0.000000000000000E+000
  1.929757638032861E-003 -5.046504943063975E-002  0.000000000000000E+000
  2.298810602807128E-003 -4.140493090209870E-002  0.000000000000000E+000
  2.590265917819427E-003 -3.073744814902668E-002  0.000000000000000E+000
  2.782484518881549E-003 -1.886801864346667E-002  0.000000000000000E+000
  2.912119189479472E-003 -6.264733411923470E-003  0.000000000000000E+000
  6.146703534612554E-004 -2.681221797341032E-002  0.000000000000000E+000
  1.646234214721114E-003 -2.578948268411231E-002  0.000000000000000E+000
  2.481489008461770E-003 -2.377208974147900E-002  0.000000000000000E+000
  3.264058583324872E-003 -2.084180388638307E-002  0.000000000000000E+000
  3.927950276665091E-003 -1.710059270300067E-002  0.000000000000000E+000
  4.451782941129068E-003 -1.269612168203047E-002  0.000000000000000E+000
  4.804384367664996E-003 -7.793028574744410E-003  0.000000000000000E+000
  4.988057257780309E-003 -2.586645203475151E-003  0.000000000000000E+000
  6.146703534612322E-004  2.681221797340918E-002  0.000000000000000E+000
  1.646234214721049E-003  2.578948268411126E-002  0.000000000000000E+000
  2.481489008461668E-003  2.377208974147809E-002  0.000000000000000E+000
  3.264058583324749E-003  2.084180388638235E-002  0.000000000000000E+000
  3.927950276664960E-003  1.710059270300012E-002  0.000000000000000E+000
  4.451782941128937E-003  1.269612168203010E-002  0.000000000000000E+000
  4.804384367664869E-003  7.793028574744196E-003  0.000000000000000E+000
  4.988057257780184E-003  2.586645203475081E-003  0.000000000000000E+000
  4.101270484476457E-004  6.493938200013782E-002  0.000000000000000E+000
  1.038213218183887E-003  6.245490788149362E-002  0.000000000000000E+000
  1.491953935358741E-003  5.756780588930092E-002  0.000000000000000E+000
  1.929757638032810E-003  5.046504943063812E-002  0.000000000000000E+000
  2.298810602807069E-003  4.140493090209747E-002  0.000000000000000E+000
  2.590265917819362E-003  3.073744814902584E-002  0.000000000000000E+000
  2.782484518881482E-003  1.886801864346618E-002  0.000000000000000E+000
  2.912119189479404E-003  6.264733411923311E-003  0.000000000000000E+000
  1.177806942350366E-004  7.010948076661686E-002  0.000000000000000E+000
  1.719263955913445E-004  6.741676674649900E-002  0.000000000000000E+000
  8.352107444359651E-005  6.213590631012336E-002  0.000000000000000E+000
  3.148595412042245E-005  5.445743323054694E-002  0.000000000000000E+000
 -1.756878997042960E-005  4.467628696986720E-002  0.000000000000000E+000
 -5.559914816490104E-005  3.316039825009894E-002  0.000000000000000E+000
 -9.015872395558421E-005  2.035659646404811E-002  0.000000000000000E+000
 -3.849260273100566E-005  6.762706584687345E-003  0.000000000000000E+000
 -1.284143362242592E-004  4.885418178876511E-002  0.000000000000000E+000
 -5.565002436329085E-004  4.697273099210486E-002  0.000000000000000E+000
 -1.099912722919945E-003  4.328488640796968E-002  0.000000000000000E+000
 -1.562166183177066E-003  3.792831198176620E-002  0.000000000000000E+000
 -1.960596342245742E-003  3.110962729050899E-002  0.000000000000000E+000
 -2.273672139917681E-003  2.308761843851028E-002  0.000000000000000E+000
 -2.497053749030190E-003  1.417273712528775E-002  0.000000000000000E+000
 -2.511741485167797E-003  4.711411520143508E-003  0.000000000000000E+000
 -2.585084706227457E-004  1.687226921692816E-002  0.000000000000000E+000
 -9.419316594603801E-004  1.622177109660655E-002  0.000000000000000E+000
 -1.725362566063811E-003  1.494493326494408E-002  0.000000000000000E+000
 -2.403565683351335E-003  1.309393203793166E-002  0.000000000000000E+000
 -2.985707312910652E-003  1.073778431348069E-002  0.000000000000000E+000
 -3.442977017853725E-003  7.968423173077914E-003  0.000000000000000E+000
 -3.765399983583215E-003  4.891225351359172E-003  0.000000000000000E+000
 -3.815322214477544E-003  1.626695832786979E-003  0.000000000000000E+000
 -2.585136506739533E-004 -1.687163789941258E-002  0.000000000000000E+000
 -9.419671529357333E-004 -1.622034889821800E-002  0.000000000000000E+000
 -1.725480580301801E-003 -1.494525281368079E-002  0.000000000000000E+000
 -2.403596031235066E-003 -1.309344254424809E-002  0.000000000000000E+000
 -2.985698172784878E-003 -1.073814911053200E-002  0.000000000000000E+000
 -3.442983980550348E-003 -7.968132636552607E-003  0.000000000000000E+000
 -3.765399244738639E-003 -4.891348957278032E-003  0.000000000000000E+000
 -3.815325692914955E-003 -1.626659023971686E-003  0.000000000000000E+000
 -1.282509791639343E-004 -4.885425104304434E-002  0.000000000000000E+000
 -5.566549195394101E-004 -4.697436997430140E-002  0.000000000000000E+000
 -1.099981247733879E-003 -4.328450885091498E-002  0.000000000000000E+000
 -1.562144885347572E-003 -3.792893780973097E-002  0.000000000000000E+000
 -1.960645273177108E-003 -3.110917172227873E-002  0.000000000000000E+000
 -2.273616939547942E-003 -2.308798497574572E-002  0.000000000000000E+000
 -2.497105233003373E-003 -1.417256552692872E-002  0.000000000000000E+000
 -2.511720647327279E-003 -4.711423002681582E-003  0.000000000000000E+000
  1.174615579306903E-004 -7.010853553583236E-002  0.000000000000000E+000
  1.719802607090958E-004 -6.741902402633179E-002  0.000000000000000E+000
  8.360568776270235E-005 -6.213461998282801E-002  0.000000000000000E+000
  3.147121007729823E-005 -5.445880043697341E-002  0.000000000000000E+000
 -1.750779363086857E-005 -4.467520118934984E-002  0.000000000000000E+000
 -5.566290314583233E-005 -3.316122761147679E-002  0.000000000000000E+000
 -9.008697535273538E-005 -2.035611409798973E-002  0.000000000000000E+000
 -3.852810398123389E-005 -6.762856363361420E-003  0.000000000000000E+000
  4.096498954404657E-004 -6.494147465303762E-002  0.000000000000000E+000
  1.038126758535866E-003 -6.245211295394035E-002  0.000000000000000E+000
  1.492063428021352E-003 -5.756937261879529E-002  0.000000000000000E+000
  1.929738823699644E-003 -5.046330693914989E-002  0.000000000000000E+000
  2.298869243924510E-003 -4.140629066767281E-002  0.000000000000000E+000
  2.590200432734811E-003 -3.073640219962357E-002  0.000000000000000E+000
  2.782568953120106E-003 -1.886863561328232E-002  0.000000000000000E+000
  2.912073509288252E-003 -6.264610959729222E-003  0.000000000000000E+000
  6.153288005347436E-004 -2.681500826051648E-002  0.000000000000000E+000
  1.646393266558096E-003 -2.578659562264996E-002  0.000000000000000E+000
  2.481363128780443E-003 -2.377365248053018E-002  0.000000000000000E+000
  3.264085238060090E-003 -2.084009361664029E-002  0.000000000000000E+000
  3.927871957090700E-003 -1.710192816450922E-002  0.000000000000000E+000
  4.451867753110261E-003 -1.269509612615378E-002  0.000000000000000E+000
  4.804271409172165E-003 -7.793612649751755E-003  0.000000000000000E+000
  4.988120663649158E-003 -2.586606508377858E-003  0.000000000000000E+000
  6.153288005347185E-004  2.681500826051534E-002  0.000000000000000E+000
  1.646393266558028E-003  2.578659562264890E-002  0.000000000000000E+000
  2.481363128780343E-003  2.377365248052927E-002  0.000000000000000E+000
  3.264085238059967E-003  2.084009361663955E-002  0.000000000000000E+000
  3.927871957090567E-003  1.710192816450867E-002  0.000000000000000E+000
  4.451867753110131E-003  1.269509612615342E-002  0.000000000000000E+000
  4.804271409172036E-003  7.793612649751540E-003  0.000000000000000E+000
  4.988120663649032E-003  2.586606508377790E-003  0.000000000000000E+000
  4.096498954404565E-004  6.494147465303515E-002  0.000000000000000E+000
  1.038126758535844E-003  6.245211295393804E-002  0.000000000000000E+000
  1.492063428021317E-003  5.756937261879329E-002  0.000000000000000E+000
  1.929738823699593E-003  5.046330693914825E-002  0.000000000000000E+000
  2.298869243924451E-003  4.140629066767158E-002  0.000000000000000E+000
  2.590200432734747E-003  3.073640219962273E-002  0.000000000000000E+000
  2.782568953120039E-003  1.886863561328182E-002  0.000000000000000E+000
  2.912073509288183E-003  6.264610959729064E-003  0.000000000000000E+000
  1.174615579306996E-004  7.010853553583050E-002  0.000000000000000E+000
  1.719802607091215E-004  6.741902402633002E-002  0.000000000000000E+000
  8.360568776273526E-005  6.213461998282642E-002  0.000000000000000E+000
  3.147121007732961E-005  5.445880043697211E-002  0.000000000000000E+000
 -1.750779363084222E-005  4.467520118934883E-002  0.000000000000000E+000
 -5.566290314581467E-005  3.316122761147609E-002  0.000000000000000E+000
 -9.008697535272655E-005  2.035611409798931E-002  0.000000000000000E+000
 -3.852810398122967E-005  6.762856363361285E-003  0.000000000000000E+000
 -1.282509791639243E-004  4.885425104304428E-002  0.000000000000000E+000
 -5.566549195393746E-004  4.697436997430130E-002  0.000000000000000E+000
 -1.099981247733823E-003  4.328450885091487E-002  0.000000000000000E+000
 -1.562144885347509E-003  3.792893780973083E-002  0.000000000000000E+000
 -1.960645273177046E-003  3.110917172227861E-002  0.000000000000000E+000
 -2.273616939547887E-003  2.308798497574561E-002  0.000000000000000E+000
 -2.497105233003327E-003  1.417256552692866E-002  0.000000000000000E+000
 -2.511720647327238E-003  4.711423002681557E-003  0.000000000000000E+000
 -2.585136506739514E-004  1.687163789941396E-002  0.000000000000000E+000
 -9.419671529357196E-004  1.622034889821931E-002  0.000000000000000E+000
 -1.725480580301776E-003  1.494525281368193E-002  0.000000000000000E+000
 -2.403596031235035E-003  1.309344254424900E-002  0.000000000000000E+000
 -2.985698172784847E-003  1.073814911053267E-002  0.000000000000000E+000
 -3.442983980550319E-003  7.968132636553040E-003  0.000000000000000E+000
 -3.765399244738613E-003  4.891348957278273E-003  0.000000000000000E+000
 -3.815325692914933E-003  1.626659023971762E-003  0.000000000000000E+000
 -2.585084706227476E-004 -1.687226921692679E-002  0.000000000000000E+000
 -9.419316594603939E-004 -1.622177109660525E-002  0.000000000000000E+000
 -1.725362566063838E-003 -1.494493326494294E-002  0.000000000000000E+000
 -2.403565683351365E-003 -1.309393203793075E-002  0.000000000000000E+000
 -2.985707312910685E-003 -1.073778431348003E-002  0.000000000000000E+000
 -3.442977017853756E-003 -7.968423173077478E-003  0.000000000000000E+000
 -3.765399983583240E-003 -4.891225351358931E-003  0.000000000000000E+000
 -3.815322214477566E-003 -1.626695832786902E-003  0.000000000000000E+000
 -1.284143362242720E-004 -4.885418178876518E-002  0.000000000000000E+000
 -5.565002436329422E-004 -4.697273099210496E-002  0.000000000000000E+000
 -1.099912722919999E-003 -4.328488640796980E-002  0.000000000000000E+000
 -1.562166183177131E-003 -3.792831198176633E-002  0.000000000000000E+000
 -1.960596342245805E-003 -3.110962729050913E-002  0.000000000000000E+000
 -2.273672139917736E-003 -2.308761843851038E-002  0.000000000000000E+000
 -2.497053749030236E-003 -1.417273712528782E-002  0.000000000000000E+000
 -2.511741485167838E-003 -4.711411520143529E-003  0.000000000000000E+000
  1.177806942350270E-004 -7.010948076661871E-002  0.000000000000000E+000
  1.719263955913188E-004 -6.741676674650078E-002  0.000000000000000E+000
  8.352107444356340E-005 -6.213590631012494E-002  0.000000000000000E+000
  3.148595412039073E-005 -5.445743323054825E-002  0.000000000000000E+000
 -1.756878997045575E-005 -4.467628696986822E-002  0.000000000000000E+000
 -5.559914816491868E-005 -3.316039825009964E-002  0.000000000000000E+000
 -9.015872395559304E-005 -2.035659646404852E-002  0.000000000000000E+000
 -3.849260273100996E-005 -6.762706584687479E-003  0.000000000000000E+000
  4.101270484476514E-004 -6.493938200014029E-002  0.000000000000000E+000
  1.038213218183907E-003 -6.245490788149591E-002  0.000000000000000E+000
  1.491953935358778E-003 -5.756780588930293E-002  0.000000000000000E+000
  1.929757638032861E-003 -5.046504943063975E-002  0.000000000000000E+000
  2.298810602807128E-003 -4.140493090209870E-002  0.000000000000000E+000
  2.590265917819427E-003 -3.073744814902668E-002  0.000000000000000E+000
  2.782484518881549E-003 -1.886801864346667E-002  0.000000000000000E+000
  2.912119189479472E-003 -6.264733411923470E-003  0.000000000000000E+000
  6.146703534612554E-004 -2.681221797341032E-002  0.000000000000000E+000
  1.646234214721114E-003 -2.578948268411231E-002  0.000000000000000E+000
  2.481489008461770E-003 -2.377208974147900E-002  0.000000000000000E+000
  3.264058583324872E-003 -2.084180388638307E-002  0.000000000000000E+000
  3.927950276665091E-003 -1.710059270300067E-002  0.000000000000000E+000
  4.451782941129068E-003 -1.269612168203047E-002  0.000000000000000E+000
  4.804384367664996E-003 -7.793028574744410E-003  0.000000000000000E+000
  4.988057257780309E-003 -2.586645203475151E-003  0.000000000000000E+000
  6.146703534612322E-004  2.681221797340918E-002  0.000000000000000E+000
  1.646234214721049E-003  2.578948268411126E-002  0.000000000000000E+000
  2.481489008461668E-003  2.377208974147809E-002  0.000000000000000E+000
  3.264058583324749E-003  2.084180388638235E-002  0.000000000000000E+000
  3.927950276664960E-003  1.710059270300012E-002  0.000000000000000E+000
  4.451782941128937E-003  1.269612168203010E-002  0.000000000000000E+000
  4.804384367664869E-003  7.793028574744196E-003  0.000000000000000E+000
  4.988057257780184E-003  2.586645203475081E-003  0.000000000000000E+000
  4.101270484476457E-004  6.493938200013782E-002  0.000000000000000E+000
  1.038213218183887E-003  6.245490788149362E-002  0.000000000000000E+000
  1.491953935358741E-003  5.756780588930092E-002  0.000000000000000E+000
  1.929757638032810E-003  5.046504943063812E-002  0.000000000000000E+000
  2.298810602807069E-003  4.140493090209747E-002  0.000000000000000E+000
  2.590265917819362E-003  3.073744814902584E-002  0.000000000000000E+000
  2.782484518881482E-003  1.886801864346618E-002  0.000000000000000E+000
  2.912119189479404E-003  6.264733411923311E-003  0.000000000000000E+000
  1.177806942350366E-004  7.010948076661686E-002  0.000000000000000E+000
  1.719263955913445E-004  6.741676674649900E-002  0.000000000000000E+000
  8.352107444359651E-005  6.213590631012336E-002  0.000000000000000E+000
  3.148595412042245E-005  5.445743323054694E-002  0.000000000000000E+000
 -1.756878997042960E-005  4.467628696986720E-002  0.000000000000000E+000
 -5.559914816490104E-005  3.316039825009894E-002  0.000000000000000E+000
 -9.015872395558421E-005  2.035659646404811E-002  0.000000000000000E+000
 -3.849260273100566E-005  6.762706584687345E-003  0.000000000000000E+000
 -1.284143362242592E-004  4.885418178876511E-002  0.000000000000000E+000
 -5.565002436329085E-004  4.697273099210486E-002  0.000000000000000E+000
 -1.099912722919945E-003  4.328488640796968E-002  0.000000000000000E+000
 -1.562166183177066E-003  3.792831198176620E-002  0.000000000000000E+000
 -1.960596342245742E-003  3.110962729050899E-002  0.000000000000000E+000
 -2.273672139917681E-003  2.308761843851028E-002  0.000000000000000E+000
 -2.497053749030190E-003  1.417273712528775E-002  0.000000000000000E+000
 -2.511741485167797E-003  4.711411520143508E-003  0.000000000000000E+000
 -2.585084706227457E-004  1.687226921692816E-002  0.000000000000000E+000