# vtk DataFile Version 3.0
v_vmean_p.vtk
ASCII
DATASET STRUCTURED_GRID
DIMENSIONS         8        8        8
POINTS                  512 float
 -0.350000000000000      -0.350000000000000      -0.350000000000000     
 -0.250000000000000      -0.350000000000000      -0.350000000000000     
 -0.150000000000000      -0.350000000000000      -0.350000000000000     
 -5.000000000000000E-002 -0.350000000000000      -0.350000000000000     
  5.000000000000000E-002 -0.350000000000000      -0.350000000000000     
  0.150000000000000      -0.350000000000000      -0.350000000000000     
  0.250000000000000      -0.350000000000000      -0.350000000000000     
  0.350000000000000      -0.350000000000000      -0.350000000000000     
 -0.350000000000000      -0.250000000000000      -0.350000000000000     
 -0.250000000000000      -0.250000000000000      -0.350000000000000     
 -0.150000000000000      -0.250000000000000      -0.350000000000000     
 -5.000000000000000E-002 -0.250000000000000      -0.350000000000000     
  5.000000000000000E-002 -0.250000000000000      -0.350000000000000     
  0.150000000000000      -0.250000000000000      -0.350000000000000     
  0.250000000000000      -0.250000000000000      -0.350000000000000     
  0.350000000000000      -0.250000000000000      -0.350000000000000     
 -0.350000000000000      -0.150000000000000      -0.350000000000000     
 -0.250000000000000      -0.150000000000000      -0.350000000000000     
 -0.150000000000000      -0.150000000000000      -0.350000000000000     
 -5.000000000000000E-002 -0.150000000000000      -0.350000000000000     
  5.000000000000000E-002 -0.150000000000000      -0.350000000000000     
  0.150000000000000      -0.150000000000000      -0.350000000000000     
  0.250000000000000      -0.150000000000000      -0.350000000000000     
  0.350000000000000      -0.150000000000000      -0.350000000000000     
 -0.350000000000000      -5.000000000000000E-002 -0.350000000000000     
 -0.250000000000000      -5.000000000000000E-002 -0.350000000000000     
 -0.150000000000000      -5.000000000000000E-002 -0.350000000000000     
 -5.000000000000000E-002 -5.000000000000000E-002 -0.350000000000000     
  5.000000000000000E-002 -5.000000000000000E-002 -0.350000000000000     
  0.150000000000000      -5.000000000000000E-002 -0.350000000000000     
  0.250000000000000      -5.000000000000000E-002 -0.350000000000000     
  0.350000000000000      -5.000000000000000E-002 -0.350000000000000     
 -0.350000000000000       5.000000000000000E-002 -0.350000000000000     
 -0.250000000000000       5.000000000000000E-002 -0.350000000000000     
 -0.150000000000000       5.000000000000000E-002 -0.350000000000000     
 -5.000000000000000E-002  5.000000000000000E-002 -0.350000000000000     
  5.000000000000000E-002  5.000000000000000E-002 -0.350000000000000     
  0.150000000000000       5.000000000000000E-002 -0.350000000000000     
  0.250000000000000       5.000000000000000E-002 -0.350000000000000     
  0.350000000000000       5.000000000000000E-002 -0.350000000000000     
 -0.350000000000000       0.150000000000000      -0.350000000000000     
 -0.250000000000000       0.150000000000000      -0.350000000000000     
 -0.150000000000000       0.150000000000000      -0.350000000000000     
 -5.000000000000000E-002  0.150000000000000      -0.350000000000000     
  5.000000000000000E-002  0.150000000000000      -0.350000000000000     
  0.150000000000000       0.150000000000000      -0.350000000000000     
  0.250000000000000       0.150000000000000      -0.350000000000000     
  0.350000000000000       0.150000000000000      -0.350000000000000     
 -0.350000000000000       0.250000000000000      -0.350000000000000     
 -0.250000000000000       0.250000000000000      -0.350000000000000     
 -0.150000000000000       0.250000000000000      -0.350000000000000     
 -5.000000000000000E-002  0.250000000000000      -0.350000000000000     
  5.000000000000000E-002  0.250000000000000      -0.350000000000000     
  0.150000000000000       0.250000000000000      -0.350000000000000     
  0.250000000000000       0.250000000000000      -0.350000000000000     
  0.350000000000000       0.250000000000000      -0.350000000000000     
 -0.350000000000000       0.350000000000000      -0.350000000000000     
 -0.250000000000000       0.350000000000000      -0.350000000000000     
 -0.150000000000000       0.350000000000000      -0.350000000000000     
 -5.000000000000000E-002  0.350000000000000      -0.350000000000000     
  5.000000000000000E-002  0.350000000000000      -0.350000000000000     
  0.150000000000000       0.350000000000000      -0.350000000000000     
  0.250000000000000       0.350000000000000      -0.350000000000000     
  0.350000000000000       0.350000000000000      -0.350000000000000     
 -0.350000000000000      -0.350000000000000      -0.250000000000000     
 -0.250000000000000      -0.350000000000000      -0.250000000000000     
 -0.150000000000000      -0.350000000000000      -0.250000000000000     
 -5.000000000000000E-002 -0.350000000000000      -0.250000000000000     
  5.000000000000000E-002 -0.350000000000000      -0.250000000000000     
  0.150000000000000      -0.350000000000000      -0.250000000000000     
  0.250000000000000      -0.350000000000000      -0.250000000000000     
  0.350000000000000      -0.350000000000000      -0.250000000000000     
 -0.350000000000000      -0.250000000000000      -0.250000000000000     
 -0.250000000000000      -0.250000000000000      -0.250000000000000     
 -0.150000000000000      -0.250000000000000      -0.250000000000000     
 -5.000000000000000E-002 -0.250000000000000      -0.250000000000000     
  5.000000000000000E-002 -0.250000000000000      -0.250000000000000     
  0.150000000000000      -0.250000000000000      -0.250000000000000     
  0.250000000000000      -0.250000000000000      -0.250000000000000     
  0.350000000000000      -0.250000000000000      -0.250000000000000     
 -0.350000000000000      -0.150000000000000      -0.250000000000000     
 -0.250000000000000      -0.150000000000000      -0.250000000000000     
 -0.150000000000000      -0.150000000000000      -0.250000000000000     
 -5.000000000000000E-002 -0.150000000000000      -0.250000000000000     
  5.000000000000000E-002 -0.150000000000000      -0.250000000000000     
  0.150000000000000      -0.150000000000000      -0.250000000000000     
  0.250000000000000      -0.150000000000000      -0.250000000000000     
  0.350000000000000      -0.150000000000000      -0.250000000000000     
 -0.350000000000000      -5.000000000000000E-002 -0.250000000000000     
 -0.250000000000000      -5.000000000000000E-002 -0.250000000000000     
 -0.150000000000000      -5.000000000000000E-002 -0.250000000000000     
 -5.000000000000000E-002 -5.000000000000000E-002 -0.250000000000000     
  5.000000000000000E-002 -5.000000000000000E-002 -0.250000000000000     
  0.150000000000000      -5.000000000000000E-002 -0.250000000000000     
  0.250000000000000      -5.000000000000000E-002 -0.250000000000000     
  0.350000000000000      -5.000000000000000E-002 -0.250000000000000     
 -0.350000000000000       5.000000000000000E-002 -0.250000000000000     
 -0.250000000000000       5.000000000000000E-002 -0.250000000000000     
 -0.150000000000000       5.000000000000000E-002 -0.250000000000000     
 -5.000000000000000E-002  5.000000000000000E-002 -0.250000000000000     
  5.000000000000000E-002  5.000000000000000E-002 -0.250000000000000     
  0.150000000000000       5.000000000000000E-002 -0.250000000000000     
  0.250000000000000       5.000000000000000E-002 -0.250000000000000     
  0.350000000000000       5.000000000000000E-002 -0.250000000000000     
 -0.350000000000000       0.150000000000000      -0.250000000000000     
 -0.250000000000000       0.150000000000000      -0.250000000000000     
 -0.150000000000000       0.150000000000000      -0.250000000000000     
 -5.000000000000000E-002  0.150000000000000      -0.250000000000000     
  5.000000000000000E-002  0.150000000000000      -0.250000000000000     
  0.150000000000000       0.150000000000000      -0.250000000000000     
  0.250000000000000       0.150000000000000      -0.250000000000000     
  0.350000000000000       0.150000000000000      -0.250000000000000     
 -0.350000000000000       0.250000000000000      -0.250000000000000     
 -0.250000000000000       0.250000000000000      -0.250000000000000     
 -0.150000000000000       0.250000000000000      -0.250000000000000     
 -5.000000000000000E-002  0.250000000000000      -0.250000000000000     
  5.000000000000000E-002  0.250000000000000      -0.250000000000000     
  0.150000000000000       0.250000000000000      -0.250000000000000     
  0.250000000000000       0.250000000000000      -0.250000000000000     
  0.350000000000000       0.250000000000000      -0.250000000000000     
 -0.350000000000000       0.350000000000000      -0.250000000000000     
 -0.250000000000000       0.350000000000000      -0.250000000000000     
 -0.150000000000000       0.350000000000000      -0.250000000000000     
 -5.000000000000000E-002  0.350000000000000      -0.250000000000000     
  5.000000000000000E-002  0.350000000000000      -0.250000000000000     
  0.150000000000000       0.350000000000000      -0.250000000000000     
  0.250000000000000       0.350000000000000      -0.250000000000000     
  0.350000000000000       0.350000000000000      -0.250000000000000     
 -0.350000000000000      -0.350000000000000      -0.150000000000000     
 -0.250000000000000      -0.350000000000000      -0.150000000000000     
 -0.150000000000000      -0.350000000000000      -0.150000000000000     
 -5.000000000000000E-002 -0.350000000000000      -0.150000000000000     
  5.000000000000000E-002 -0.350000000000000      -0.150000000000000     
  0.150000000000000      -0.350000000000000      -0.150000000000000     
  0.250000000000000      -0.350000000000000      -0.150000000000000     
[...]
POINT_DATA       512
VECTORS velocity float
 -2.132953248651578E-003 -8.317648772973274E-005  1.356599649095148E-003
 -4.621794566845455E-003 -3.174777676214724E-005  1.070716633130516E-003
 -9.327815836257100E-003 -2.622137169223623E-005  8.742785940765176E-004
 -1.065131187265676E-002 -4.651827949275953E-005 -6.150042651289072E-004
 -1.177791827878324E-002 -3.528572587396669E-005 -1.070412113179473E-003
 -1.102426975888179E-002 -1.051386124472076E-004 -2.861085312438073E-003
 -6.557213400403669E-003 -1.179923840571936E-004 -3.421086351412740E-003
 -3.664686155656232E-003 -1.174473332463936E-004 -3.928385824747240E-003
 -2.552621732407451E-003 -1.001810870274991E-004  1.666568256470854E-003
 -5.586166234463921E-003 -4.531459826131398E-005  1.360591338392860E-003
 -1.109826517114652E-002 -3.690241279727663E-005  1.089252866736769E-003
 -1.266628853957785E-002 -5.770921744152777E-005 -6.721862850701438E-004
 -1.391561726257496E-002 -4.452056370385765E-005 -1.251306926309966E-003
 -1.295024954523770E-002 -1.228986912202742E-004 -3.362027470063925E-003
 -7.715508729334693E-003 -1.376972111751994E-004 -4.034585139285164E-003
 -4.282697090349777E-003 -1.421168030429597E-004 -4.601939159572022E-003
 -2.575190040383823E-003 -5.451031802259868E-005  1.673566015408434E-003
 -5.642555991903108E-003 -3.765969186632093E-005  1.370605069529027E-003
 -1.120890912091696E-002 -2.972267004285509E-005  1.093909462367978E-003
 -1.279310628131528E-002 -3.323603635666692E-005 -6.802051866388409E-004
 -1.405522922355869E-002 -2.532932488056440E-005 -1.267653975922853E-003
 -1.307836519768212E-002 -5.595616837414226E-005 -3.396784046390050E-003
 -7.794833104110986E-003 -6.049425820849388E-005 -4.077901718535575E-003
 -4.326421345854026E-003 -7.192031361509692E-005 -4.649175895496551E-003
 -2.563392661090506E-003 -3.037916785687779E-005  1.652033664051339E-003
 -5.629794857916434E-003 -2.185907816755098E-005  1.346750957605730E-003
 -1.121119333791436E-002 -1.665727541099211E-005  1.080912782085163E-003
 -1.279590968125540E-002 -1.895640180060277E-005 -6.963368212907014E-004
 -1.407345695778317E-002 -1.353348745734424E-005 -1.274911593501509E-003
 -1.310246390134170E-002 -3.110445685581332E-005 -3.409637682802829E-003
 -7.810324915390062E-003 -3.259550344685034E-005 -4.088731353484955E-003
 -4.338592502560135E-003 -4.033315428816894E-005 -4.665921505492088E-003
 -2.564817667094990E-003  3.037067551148553E-005  1.650591074287593E-003
 -5.629601121613342E-003  2.184471360867610E-005  1.348204752715392E-003
 -1.121127578389666E-002  1.665911582468521E-005  1.078934034350693E-003
 -1.279609884151465E-002  1.894009648576898E-005 -6.948904743983727E-004
 -1.407328467533582E-002  1.353679131191582E-005 -1.276149695249288E-003
 -1.310272458476407E-002  3.108896849894167E-005 -3.408794453521594E-003
 -7.810090592189422E-003  3.259600541142375E-005 -4.089334976089504E-003
 -4.339206831882560E-003  4.031543841511078E-005 -4.665633848473055E-003
 -2.573778952371676E-003  5.437396964580935E-005  1.674990822005130E-003
 -5.642748176352599E-003  3.780184329064535E-005  1.369146940191080E-003
 -1.120883011798811E-002  2.947885378933165E-005  1.095879145077066E-003
 -1.279291618062403E-002  3.342826502571514E-005 -6.816495764520098E-004
 -1.405540052630004E-002  2.514170709664531E-005 -1.266424928851725E-003
 -1.307810581796566E-002  5.610079814731808E-005 -3.397616837329257E-003
 -7.795062898018519E-003  6.039851155138108E-005 -4.077308173903677E-003
 -4.325820909923258E-003  7.196102202346142E-005 -4.649454979004546E-003
 -2.553699658005370E-003  1.003409371249496E-004  1.665482763667555E-003
 -5.586064635168373E-003  4.513078752027831E-005  1.361718506160152E-003
 -1.109829313293413E-002  3.718517113752663E-005  1.087839869790476E-003
 -1.266642800084543E-002  5.746037366104785E-005 -6.711181668462129E-004
 -1.391548802765631E-002  4.473990392215606E-005 -1.252196424486840E-003
 -1.295042123052762E-002  1.227041684325470E-004 -3.361391249929568E-003
 -7.715355991240219E-003  1.378053837948665E-004 -4.035033270811892E-003
 -4.283144525229121E-003  1.420342577870692E-004 -4.601701929469114E-003
 -2.132184089994494E-003  8.236709028856339E-005  1.357365954025707E-003
 -4.621883185578628E-003  3.273539810007776E-005  1.069816194812342E-003
 -9.327804619841213E-003  2.501794340779655E-005  8.753368389665028E-004
 -1.065120845684337E-002  4.752194387026434E-005 -6.158283442269200E-004
 -1.177801428296194E-002  3.441667325981958E-005 -1.069750051273410E-003
 -1.102414488979035E-002  1.058433214545271E-004 -2.861553846911226E-003
 -6.557325127574811E-003  1.175038334111447E-004 -3.420765327564624E-003
 -3.664382220634828E-003  1.177356342517783E-004 -3.928540151042791E-003
 -3.320662206145452E-003 -1.906126597542295E-004  5.771274770890846E-003
 -6.388169117887509E-003 -1.290696469296485E-004  6.348137305685149E-003
 -1.248103957987177E-002 -9.223182521656402E-005  5.612714560464302E-003
 -1.426712498417742E-002 -1.054273056703218E-004  3.086279611734197E-003
 -1.571422506391197E-002 -6.321385562805659E-005  2.089426527493832E-003
 -1.492120408641962E-002 -1.368426589353727E-004 -2.242444917729769E-003
 -9.192143247677372E-003 -1.423852938140972E-004 -3.278954104093125E-003
 -5.475476493795715E-003 -1.519355113531417E-004 -5.939948762203541E-003
 -3.997502151337226E-003 -2.223423713231244E-004  6.628765652419855E-003
 -7.793282149080483E-003 -1.541572410371716E-004  7.347423059105398E-003
 -1.497768796556601E-002 -1.134278834979417E-004  6.392212242204721E-003
 -1.710657976969970E-002 -1.227023197074370E-004  3.388064036481539E-003
 -1.871268626605062E-002 -7.761395253737141E-005  2.097003665773328E-003
 -1.765802557962787E-002 -1.588008071638341E-004 -3.019780774739315E-003
 -1.090782511899441E-002 -1.673842759015988E-004 -4.304580471076593E-003
 -6.477742710985818E-003 -1.842170084078819E-004 -7.377923301973497E-003
 -4.032465244752036E-003 -1.011258261498633E-004  6.668224926111901E-003
 -7.875516098034434E-003 -8.161453094084790E-005  7.404691690783488E-003
 -1.513357389796310E-002 -5.920995399633779E-005  6.436726821919287E-003
 -1.728515692562408E-002 -6.040443450971103E-005  3.408281757058725E-003
 -1.890895352670679E-002 -3.954652605004101E-005  2.099623782509593E-003
 -1.784043682262272E-002 -7.582914023457225E-005 -3.071618949516770E-003
 -1.102744321288622E-002 -7.812575096670955E-005 -4.374727533027932E-003
 -6.549594923053773E-003 -9.816704440076891E-005 -7.487539347201196E-003
 -4.021497442284193E-003 -5.583377364037467E-005  6.649561633467247E-003
 -7.853325245426826E-003 -4.615945438512598E-005  7.405224621626922E-003
 -1.512973148513555E-002 -3.299613252776632E-005  6.441310249263431E-003
 -1.728378310334570E-002 -3.430349994404204E-005  3.423431478338280E-003
 -1.892644325209950E-002 -2.186354886790141E-005  2.123062958104507E-003
 -1.787075889541461E-002 -4.312374197835280E-005 -3.065387329517610E-003
 -1.104992641084193E-002 -4.338729120330946E-005 -4.367536424869867E-003
 -6.571568858454683E-003 -5.647307423321049E-005 -7.520769239361421E-003
 -4.019850611112293E-003  5.581504970813810E-005  6.649847051420075E-003
 -7.853338128651027E-003  4.615469002796132E-005  7.405135626357442E-003
 -1.512982491768764E-002  3.299796019524806E-005  6.441559185601371E-003
 -1.728337747170912E-002  3.430240852017297E-005  3.423513757715465E-003
 -1.892677430354036E-002  2.186747663715910E-005  2.122889488847915E-003
 -1.787050721768322E-002  4.312846774835727E-005 -3.064961483528903E-003
 -1.105006159231442E-002  4.338845534694678E-005 -4.367882215454415E-003
 -6.571369003138032E-003  5.646617689387625E-005 -7.520416280832773E-003
 -4.034115384930443E-003  1.012900433173948E-004  6.667938507440172E-003
 -7.875499171579882E-003  8.149398003699855E-005  7.404781875324273E-003
 -1.513347979604071E-002  5.943900769492736E-005  6.436475504796381E-003
 -1.728556054000240E-002  6.029958004569251E-005  3.408202811048182E-003
 -1.890861686846845E-002  3.964742795221029E-005  2.099793624978179E-003
 -1.784068762006608E-002  7.582325195799869E-005 -3.072040681556753E-003
 -1.102730357917308E-002  7.815883534242821E-005 -4.374384467218525E-003
 -6.549788609423820E-003  9.817627579694163E-005 -7.487890650170703E-003
 -3.996241093412952E-003  2.221296222054882E-004  6.628927223058970E-003
 -7.793272860208479E-003  1.542688879979454E-004  7.347365516015213E-003
 -1.497777135137528E-002  1.131822663043188E-004  6.392324768871951E-003
 -1.710629448928115E-002  1.228098380397818E-004  3.388139375514348E-003
 -1.871292051868566E-002  7.750828824102372E-005  2.096846238899099E-003
 -1.765783454550205E-002  1.588105207701411E-004 -3.019477045687838E-003
 -1.090793234766384E-002  1.673503137539474E-004 -4.304849899709776E-003
 -6.477555756769273E-003  1.841936076766975E-004 -7.377666182527285E-003
 -3.321648061004594E-003  1.917022086056144E-004  5.771135941971184E-003
 -6.388151943650190E-003  1.279951684015700E-004  6.348193405816511E-003
 -1.248097329820735E-002  9.353991510344469E-005  5.612612040278516E-003
 -1.426733556687701E-002  1.045459073937924E-004  3.086230382374512E-003
 -1.571403184246558E-002  6.388545807665606E-005  2.089533724250368E-003
 -1.492135246235622E-002  1.364818169368401E-004 -2.242677501861344E-003
 -9.192045958401666E-003  1.426444287090036E-004 -3.278751584113582E-003
 -5.475610476630484E-003  1.518533646185351E-004 -5.940147021418738E-003
 -3.211523638245933E-003 -2.265228259251233E-004  1.102553904233459E-002
 -6.905021728971984E-003 -8.420330638698572E-005  9.737200476500060E-003
 -1.440388262761189E-002 -7.211514939164722E-005  8.727449425508462E-003
 -1.630774034847306E-002 -4.868902726874761E-005  1.794076059905582E-003
 -1.913196927334007E-002 -5.758621787974085E-006 -4.255486651256715E-004
 -1.849320037540707E-002 -1.231526789321025E-004 -1.010406797050299E-002
 -1.272946817903677E-002 -1.361000639611287E-004 -1.296636343142450E-002
 -8.916367516466699E-003 -2.810997808145019E-004 -1.897928078284108E-002
 -3.885608365082318E-003 -2.520131532404919E-004  1.285376665764413E-002
 -8.478509097006141E-003 -9.796557603990444E-005  1.147477881169411E-002
 -1.733551055077835E-002 -8.071586258392807E-005  1.010176650303332E-002
 -1.964648902821646E-002 -5.137324815513327E-005  1.927475002708096E-003
 -2.283748339090759E-002 -3.667603736099620E-006 -8.920859047088576E-004
 -2.198235512002794E-002 -1.366276725052916E-004 -1.227488931769436E-002
 -1.520474795849996E-002 -1.539502388873631E-004 -1.571491043336022E-002
 -1.067076604405947E-002 -3.253648189065504E-004 -2.278918273638909E-002
 -3.916014322988447E-003 -1.019286133870709E-004  1.292524384379998E-002
 -8.565901001237778E-003 -4.937260721594001E-005  1.155479050663194E-002
 -1.751616617835612E-002 -3.122001120654988E-005  1.016914875661923E-002
 -1.985459019156718E-002 -1.313179271152345E-005  1.923495478311596E-003
 -2.308379916382413E-002  1.236815160705977E-005 -9.259518250470806E-004
 -2.222168386326806E-002 -4.571804858036290E-005 -1.242777534791938E-002
 -1.539020690139464E-002 -4.869818180019234E-005 -1.590668784118687E-002
 -1.081034842816966E-002 -1.299488504005164E-004 -2.307736370879177E-002
 -3.880596114814238E-003 -5.400395303961805E-005  1.285711315339853E-002
 -8.527467703768476E-003 -2.587013334454242E-005  1.150379037545582E-002
 -1.750470758227376E-002 -1.501462218723474E-005  1.014985471366229E-002
 -1.983962725289361E-002 -5.547668085845263E-006  1.908550615743216E-003
 -2.311205751294382E-002  9.633746441466846E-006 -9.167574861161612E-004
 -2.226544253542962E-002 -2.424138264843419E-005 -1.245279402286342E-002
 -1.544814678459388E-002 -2.444649348629391E-005 -1.593567340404245E-002
 -1.087279531841771E-002 -7.237277532887465E-005 -2.318071177839639E-002
 -3.882899018449103E-003  5.400333229654884E-005  1.285688576322604E-002
 -8.527344172621375E-003  2.587350704402560E-005  1.150378282326949E-002
 -1.750460493641889E-002  1.502799500667612E-005  1.014981246248590E-002
 -1.984031412094404E-002  5.550142133105920E-006  1.908205092825388E-003
 -2.311146936794383E-002 -9.620564300652866E-006 -9.162703480918810E-004
 -2.226593954984706E-002  2.424355912315069E-005 -1.245358530001090E-002
 -1.544787165363710E-002  2.445672934340327E-005 -1.593505019490117E-002
 -1.087272554934171E-002  7.236204693296248E-005 -2.318133079773678E-002
 -3.913722332994570E-003  1.016388676113069E-004  1.292546054525598E-002
 -8.566030039432869E-003  4.958968053522214E-005  1.155479716694009E-002
 -1.751627219258881E-002  3.079987878618858E-005  1.016918949140916E-002
 -1.985390395350648E-002  1.336722409092883E-005  1.923840432654125E-003
 -2.308438695035711E-002 -1.255872168828097E-005 -9.264350388106216E-004
 -2.222118535025803E-002  4.577832949209838E-005 -1.242698541378012E-002
 -1.539047582132531E-002  4.867501153968141E-005 -1.590730544789533E-002
 -1.081042513762381E-002  1.299103601322488E-004 -2.307675475488224E-002
 -3.887262177000018E-003  2.523425635061637E-004  1.285362059771740E-002
 -8.478486173764828E-003  9.773957604460070E-005  1.147477796290844E-002
 -1.733538765829539E-002  8.119966656676909E-005  1.010176833649849E-002
 -1.964695546114188E-002  5.111378443833060E-005  1.927233653924809E-003
 -2.283707354659048E-002  3.896559253373475E-006 -8.917245888452910E-004
 -2.198268149767484E-002  1.365614681453668E-004 -1.227543540665930E-002
 -1.520455753179673E-002  1.539836454357795E-004 -1.571443979345452E-002
 -1.067069229990641E-002  3.253951119439476E-004 -2.278963473089584E-002
 -3.210289258756328E-003  2.251126867883439E-004  1.102561281823892E-002
 -6.905064152337448E-003  8.556202472651221E-005  9.737191206106652E-003
 -1.440399132210173E-002  7.037367809097641E-005  8.727422896558366E-003
 -1.630738801026515E-002  4.974999454806643E-005  1.794258237344051E-003
 -1.913228832178183E-002  5.059275641999396E-006 -4.258406876381828E-004
 -1.849294565209212E-002  1.233441283596330E-004 -1.010364686443367E-002
 -1.272960293645148E-002  1.360950083523480E-004 -1.296674104661603E-002
 -8.916461268274964E-003  2.809180286444854E-004 -1.897895251616992E-002
 -7.624059184216511E-003 -4.894034741274622E-004  1.713031040673607E-002
 -1.117819924944205E-002 -3.492730462313695E-004  1.880921794476694E-002
 -2.066174634966378E-002 -2.015030046357437E-004  1.633531627896337E-002
 -2.374562045076511E-002 -2.183936994140226E-004  8.666308621984741E-003
 -2.763546981762582E-002 -9.023870178254856E-005  6.031741732493206E-003
 -2.812240771864643E-002 -2.887349267767887E-004 -7.735219769049192E-003
 -2.142216792924015E-002 -3.186642391200685E-004 -1.070986178271839E-002
 -1.673796724956931E-002 -6.715674866802314E-004 -2.597425507333692E-002
 -9.125062208720341E-003 -5.591699514348869E-004  1.963997089787527E-002
 -1.364075630861002E-002 -4.030955828157053E-004  2.191600215410057E-002
 -2.482796325880511E-002 -2.366529630681780E-004  1.870214763848495E-002
 -2.853173343953525E-002 -2.417622743319126E-004  9.644316467158218E-003
 -3.292979339414195E-002 -9.818287164840206E-005  6.199033989284035E-003
 -3.336647052325636E-002 -3.172618929454211E-004 -1.008605378796719E-002
 -2.563423197266512E-002 -3.522533033171806E-004 -1.382735576651135E-002
 -2.026910445637536E-002 -7.588837182224982E-004 -3.246008193367461E-002
 -9.198493809590733E-003 -2.362572642358744E-004  1.974820374231723E-002
 -1.376573964196935E-002 -1.836385438884990E-004  2.210393560091830E-002
 -2.507268456407538E-002 -1.031187986637121E-004  1.885295772479930E-002
 -2.881882526997943E-002 -9.064948690579610E-005  9.732188019787652E-003
 -3.327450819140625E-002 -2.249635437208023E-005  6.247962347874862E-003
 -3.372448092980645E-002 -1.136171172974788E-004 -1.021260282984769E-002
 -2.595244094864474E-002 -1.193026499913963E-004 -1.400515318045266E-002
 -2.055274088471998E-002 -2.756655828812457E-004 -3.294157471109378E-002
 -9.167009819838961E-003 -1.307179935217936E-004  1.970498159065502E-002
 -1.369138252988802E-002 -1.035157072673788E-004  2.214310579458682E-002
 -2.503414524557545E-002 -5.697394554141852E-005  1.891136467955708E-002
 -2.879019834494095E-002 -5.003594302594569E-005  9.827612113331628E-003
 -3.330220260055073E-002 -1.018578864619295E-005  6.382791955565142E-003
 -3.379749706242986E-002 -6.230362486709699E-005 -1.013464183080063E-002
 -2.605997035447037E-002 -6.269454368531506E-005 -1.391302567253468E-002
 -2.067942573120962E-002 -1.515683274400299E-004 -3.306373228924396E-002
 -9.165047820787751E-003  1.306911548181281E-004  1.970493381357665E-002
 -1.369120238039752E-002  1.035142554128095E-004  2.214332080727272E-002
 -2.503459292372697E-002  5.697730112418046E-005  1.891096140948489E-002
 -2.878925793787808E-002  5.003726574355311E-005  9.828299036777819E-003
 -3.330303318781370E-002  1.019641765908349E-005  6.381918146307119E-003
 -3.379708384278168E-002  6.230920036371548E-005 -1.013351730608680E-002
 -2.606010144774312E-002  6.270197427131522E-005 -1.391400372515415E-002
 -2.068056131588139E-002  1.515517869343218E-004 -3.306300969390561E-002
 -9.200454124387405E-003  2.365108917395252E-004  1.974824724949274E-002
 -1.376591266207960E-002  1.835274676595773E-004  2.210371997601935E-002
 -2.507223695939100E-002  1.033963027456567E-004  1.885336353277182E-002
 -2.881975832004770E-002  9.064441707487097E-005  9.731506274458171E-003
 -3.327367243980072E-002  2.247773956665855E-005  6.248836215532019E-003
 -3.372488989319240E-002  1.138555812842425E-004 -1.021371299492749E-002
 -2.595230400478156E-002  1.191847770113684E-004 -1.400417723772804E-002
 -2.055160619955407E-002  2.758370906809854E-004 -3.294228793924183E-002
 -9.123614531528865E-003  5.588398656837955E-004  1.963993359249656E-002
 -1.364060709320628E-002  4.032053012393003E-004  2.191614085176885E-002
 -2.482829933612738E-002  2.363502076423081E-004  1.870187549290534E-002
 -2.853108974586366E-002  2.417696530892428E-004  9.644783117244655E-003
 -3.293036262664842E-002  9.821748136395371E-005  6.198431274153426E-003
 -3.336615789865435E-002  3.170036951670874E-004 -1.008527558601640E-002
 -2.563435422057478E-002  3.524016271596722E-004 -1.382805348490408E-002
 -2.026990350610801E-002  7.586503508129630E-004 -3.245954934507127E-002
 -7.625167561839992E-003  4.907519729672620E-004  1.713032421919188E-002
 -1.117828329566587E-002  3.482136225236813E-004  1.880909502238233E-002
 -2.066148033746643E-002  2.027615000118573E-004  1.633552367191590E-002
 -2.374610219294704E-002  2.180354355998689E-004  8.665943969882657E-003
 -2.763501205835431E-002  9.012052332080009E-005  6.032200708751781E-003
 -2.812265409855333E-002  2.895512556012662E-004 -7.735816583143099E-003
 -2.142206648147115E-002  3.179211574085564E-004 -1.070932851163650E-002
 -1.673732517365225E-002  6.723924660709156E-004 -2.597467051937917E-002
 -4.705358245224429E-003 -5.858924732782566E-004  3.004934204403944E-002
 -1.075467178521792E-002  1.033407247373123E-005  2.132043860203524E-002
 -2.429315362369889E-002  3.021547541761395E-005  2.114477285031227E-002
 -2.669789514085345E-002  1.947478862477962E-004  6.459421416117952E-003
 -3.483687890080900E-002  3.722922591810048E-004  3.459960236337203E-003
 -3.582489705313448E-002  6.055104128504312E-005 -1.859978985538551E-002
 -3.403053759876038E-002  9.130304593777346E-005 -2.492103018190504E-002
 -3.065810793716043E-002 -1.065180780334455E-003 -5.809669207745427E-002
 -5.455108370994855E-003 -6.323211511206861E-004  3.437853426927594E-002
 -1.308230362013382E-002  1.152341406552843E-005  2.464886249023118E-002
 -2.923374847574508E-002  4.435713972764692E-005  2.422243863030855E-002
 -3.225539891204182E-002  2.420513037702769E-004  7.001760555146239E-003
 -4.160469139170352E-002  4.410920252742286E-004  3.155761104575149E-003
 -4.275835106487065E-002  9.738869364964396E-005 -2.274357626216239E-002
 -4.103944486277918E-002  1.237945376975578E-004 -3.025939727110383E-002
 -3.663046889732353E-002 -1.165560025335365E-003 -7.162854748922476E-002
 -5.444858409804148E-003 -2.116105934644955E-004  3.453174469079017E-002